<LesHouchesEvents version="1.0">
<header>
<!--
#*********************************************************************
#                                                                    *
#                        MadGraph5_aMC@NLO                           *
#                                                                    *
#                           Going Beyond                             *
#                                                                    *
#                   http://madgraph.hep.uiuc.edu                     *
#                   http://madgraph.phys.ucl.ac.be                   *
#                   http://amcatnlo.cern.ch                          *
#                                                                    *
#                     The MadGraph5_aMC@NLO team                     *
#                                                                    *
#....................................................................*
#                                                                    *
# This file contains all the information necessary to reproduce      *
# the events generated:                                              *
#                                                                    *
# 1. software version                                                *
# 2. proc_card          : code generation info including model       *
# 3. param_card         : model primary parameters in the LH format  *
# 4. run_card           : running parameters (collider and cuts)     *
# 5. pythia_card        : present only if pythia has been run        *
# 6. pgs_card           : present only if pgs has been run           *
# 7. delphes_cards      : present only if delphes has been run       *
#                                                                    *
#                                                                    *
#*********************************************************************
-->
<MGVersion>
#5.2.2.3
</MGVersion>
<MG5ProcCard>
#************************************************************
#*                     MadGraph5_aMC@NLO                    *
#*                                                          *
#*                *                       *                 *
#*                  *        * *        *                   *
#*                    * * * * 5 * * * *                     *
#*                  *        * *        *                   *
#*                *                       *                 *
#*                                                          *
#*                                                          *
#*         VERSION 2.2.3                 2015-02-10         *
#*                                                          *
#*    The MadGraph5_aMC@NLO Development Team - Find us at   *
#*    https://server06.fynu.ucl.ac.be/projects/madgraph     *
#*                                                          *
#************************************************************
#*                                                          *
#*               Command File for MadGraph5_aMC@NLO         *
#*                                                          *
#*     run as ./bin/mg5_aMC  filename                       *
#*                                                          *
#************************************************************
set group_subprocesses Auto
set ignore_six_quark_processes False
set loop_optimized_output True
set complex_mass_scheme False
import model sm
define p = g u c d s u~ c~ d~ s~
define j = g u c d s u~ c~ d~ s~
define l+ = e+ mu+
define l- = e- mu-
define vl = ve vm vt
define vl~ = ve~ vm~ vt~
set group_subprocesses Auto
set ignore_six_quark_processes False
set loop_optimized_output True
set complex_mass_scheme False
import model sm
define p = g u c d s u~ c~ d~ s~
define j = g u c d s u~ c~ d~ s~
define l+ = e+ mu+
define l- = e- mu-
define vl = ve vm vt
define vl~ = ve~ vm~ vt~
import model new_SM_EFT_FF_bt
generate g g > h h
output SM_hh
</MG5ProcCard>
<MGProcCard>
#*********************************************************************
#                        MadGraph/MadEvent                           *
#                   http://madgraph.hep.uiuc.edu                     *
#                                                                    *
#                          proc_card.dat                             *
#*********************************************************************
#                                                                    *
#            This Files is generated by MADGRAPH 5                   *
#                                                                    *
# WARNING: This Files is generated for MADEVENT (compatibility issue)*
#          This files is NOT a valid MG4 proc_card.dat               *
#          Running this in MG4 will NEVER reproduce the result of MG5*
#                                                                    *
#*********************************************************************
#*********************************************************************
# Process(es) requested : mg2 input                                  *
#*********************************************************************
# Begin PROCESS # This is TAG. Do not modify this line
g g > h h           #Process
# Be carefull the coupling are here in MG5 convention
          
end_coup           # End the couplings input

done               # this tells MG there are no more procs
# End PROCESS  # This is TAG. Do not modify this line
#*********************************************************************
# Model information                                                  *
#*********************************************************************
# Begin MODEL  # This is TAG. Do not modify this line
new_SM_EFT_FF_bt
# End   MODEL  # This is TAG. Do not modify this line
#*********************************************************************
# Start multiparticle definitions                                    *
#*********************************************************************
# Begin MULTIPARTICLES # This is TAG. Do not modify this line

# End  MULTIPARTICLES # This is TAG. Do not modify this line
</MGProcCard>
<MGRunCard>
#*********************************************************************
#                       MadGraph5_aMC@NLO                            *
#                                                                    *
#                     run_card.dat MadEvent                          *
#                                                                    *
#  This file is used to set the parameters of the run.               *
#                                                                    *
#  Some notation/conventions:                                        *
#                                                                    *
#   Lines starting with a '# ' are info or comments                  *
#                                                                    *
#   mind the format:   value    = variable     ! comment             *
#*********************************************************************
#
#*******************                                                 
# Running parameters
#*******************                                                 
#                                                                    
#*********************************************************************
# Tag name for the run (one word)                                    *
#*********************************************************************
  tag_1     = run_tag ! name of the run 
#*********************************************************************
# Run to generate the grid pack                                      *
#*********************************************************************
  .true.     = gridpack  !True = setting up the grid pack
#*********************************************************************
# Number of events and rnd seed                                      *
# Warning: Do not generate more than 1M events in a single run       *
# If you want to run Pythia, avoid more than 50k events in a run.    *
#*********************************************************************
  10000 = nevents ! Number of unweighted events requested 
 1 = iseed   ! rnd seed (0=assigned automatically=default))
#*********************************************************************
# Collider type and energy                                           *
# lpp: 0=No PDF, 1=proton, -1=antiproton, 2=photon from proton,      *
#                                         3=photon from electron     *
#*********************************************************************
        1     = lpp1    ! beam 1 type 
        1     = lpp2    ! beam 2 type
     50000     = ebeam1  ! beam 1 total energy in GeV
     50000     = ebeam2  ! beam 2 total energy in GeV
#*********************************************************************
# Beam polarization from -100 (left-handed) to 100 (right-handed)    *
#*********************************************************************
        0     = polbeam1 ! beam polarization for beam 1
        0     = polbeam2 ! beam polarization for beam 2
#*********************************************************************
# PDF CHOICE: this automatically fixes also alpha_s and its evol.    *
#*********************************************************************
 'nn23lo1'    = pdlabel     ! PDF set                                     
 230000    = lhaid     ! if pdlabel=lhapdf, this is the lhapdf number
#*********************************************************************
# Renormalization and factorization scales                           *
#*********************************************************************
 F        = fixed_ren_scale  ! if .true. use fixed ren scale
 F        = fixed_fac_scale  ! if .true. use fixed fac scale
 91.1880  = scale            ! fixed ren scale
 91.1880  = dsqrt_q2fact1    ! fixed fact scale for pdf1
 91.1880  = dsqrt_q2fact2    ! fixed fact scale for pdf2
 1        = scalefact        ! scale factor for event-by-event scales
#*********************************************************************
# Matching - Warning! ickkw > 1 is still beta
#*********************************************************************
 0        = ickkw            ! 0 no matching, 1 MLM, 2 CKKW matching
 1        = highestmult      ! for ickkw=2, highest mult group
 1        = ktscheme         ! for ickkw=1, 1 Durham kT, 2 Pythia pTE
 1        = alpsfact         ! scale factor for QCD emission vx
 F        = chcluster        ! cluster only according to channel diag
 T        = pdfwgt           ! for ickkw=1, perform pdf reweighting
 5        = asrwgtflavor     ! highest quark flavor for a_s reweight
 T        = clusinfo         ! include clustering tag in output
 3.0      = lhe_version       ! Change the way clustering information pass to shower.        
#*********************************************************************
#**********************************************************
#
#**********************************************************
# Automatic ptj and mjj cuts if xqcut > 0
# (turn off for VBF and single top processes)
#**********************************************************
   T  = auto_ptj_mjj  ! Automatic setting of ptj and mjj
#**********************************************************
#                                                                    
#**********************************
# BW cutoff (M+/-bwcutoff*Gamma)
#**********************************
  15  = bwcutoff      ! (M+/-bwcutoff*Gamma)
#**********************************************************
# Apply pt/E/eta/dr/mij cuts on decay products or not
# (note that etmiss/ptll/ptheavy/ht/sorted cuts always apply)
#**********************************************************
   T  = cut_decays    ! Cut decay products 
#*************************************************************
# Number of helicities to sum per event (0 = all helicities)
# 0 gives more stable result, but longer run time (needed for
# long decay chains e.g.).
# Use >=2 if most helicities contribute, e.g. pure QCD.
#*************************************************************
   0  = nhel          ! Number of helicities used per event
#*******************                                                 
# Standard Cuts
#*******************                                                 
#                                                                    
#*********************************************************************
# Minimum and maximum pt's (for max, -1 means no cut)                *
#*********************************************************************
 20  = ptj       ! minimum pt for the jets 
  0  = ptb       ! minimum pt for the b 
 10  = pta       ! minimum pt for the photons 
 10  = ptl       ! minimum pt for the charged leptons 
  0  = misset    ! minimum missing Et (sum of neutrino's momenta)
  0  = ptheavy   ! minimum pt for one heavy final state
 1.0 = ptonium   ! minimum pt for the quarkonium states
 -1  = ptjmax    ! maximum pt for the jets
 -1  = ptbmax    ! maximum pt for the b
 -1  = ptamax    ! maximum pt for the photons
 -1  = ptlmax    ! maximum pt for the charged leptons
 -1  = missetmax ! maximum missing Et (sum of neutrino's momenta)
#*********************************************************************
# Minimum and maximum E's (in the center of mass frame)              *
#*********************************************************************
  0  = ej     ! minimum E for the jets 
  0  = eb     ! minimum E for the b 
  0  = ea     ! minimum E for the photons 
  0  = el     ! minimum E for the charged leptons 
 -1   = ejmax ! maximum E for the jets
 -1   = ebmax ! maximum E for the b
 -1   = eamax ! maximum E for the photons
 -1   = elmax ! maximum E for the charged leptons
#*********************************************************************
# Maximum and minimum absolute rapidity (for max, -1 means no cut)   *
#*********************************************************************
   5  = etaj    ! max rap for the jets 
  -1  = etab    ! max rap for the b
 2.5  = etaa    ! max rap for the photons 
 2.5  = etal    ! max rap for the charged leptons 
 0.6  = etaonium ! max rap for the quarkonium states
   0  = etajmin ! min rap for the jets
   0  = etabmin ! min rap for the b
   0  = etaamin ! min rap for the photons
   0  = etalmin ! main rap for the charged leptons
#*********************************************************************
# Minimum and maximum DeltaR distance                                *
#*********************************************************************
 0.4 = drjj    ! min distance between jets 
 0   = drbb    ! min distance between b's 
 0.4 = drll    ! min distance between leptons 
 0.4 = draa    ! min distance between gammas 
 0   = drbj    ! min distance between b and jet 
 0.4 = draj    ! min distance between gamma and jet 
 0.4 = drjl    ! min distance between jet and lepton 
 0   = drab    ! min distance between gamma and b 
 0   = drbl    ! min distance between b and lepton 
 0.4 = dral    ! min distance between gamma and lepton 
 -1  = drjjmax ! max distance between jets
 -1  = drbbmax ! max distance between b's
 -1  = drllmax ! max distance between leptons
 -1  = draamax ! max distance between gammas
 -1  = drbjmax ! max distance between b and jet
 -1  = drajmax ! max distance between gamma and jet
 -1  = drjlmax ! max distance between jet and lepton
 -1  = drabmax ! max distance between gamma and b
 -1  = drblmax ! max distance between b and lepton
 -1  = dralmax ! maxdistance between gamma and lepton
#*********************************************************************
# Minimum and maximum invariant mass for pairs                       *
# WARNING: for four lepton final state mmll cut require to have      *
#          different lepton masses for each flavor!                  *           
#*********************************************************************
 0   = mmjj    ! min invariant mass of a jet pair 
 0   = mmbb    ! min invariant mass of a b pair 
 0   = mmaa    ! min invariant mass of gamma gamma pair
 0   = mmll    ! min invariant mass of l+l- (same flavour) lepton pair
 -1  = mmjjmax ! max invariant mass of a jet pair
 -1  = mmbbmax ! max invariant mass of a b pair
 -1  = mmaamax ! max invariant mass of gamma gamma pair
 -1  = mmllmax ! max invariant mass of l+l- (same flavour) lepton pair
#*********************************************************************
# Minimum and maximum invariant mass for all letpons                 *
#*********************************************************************
 0   = mmnl    ! min invariant mass for all letpons (l+- and vl) 
 -1  = mmnlmax ! max invariant mass for all letpons (l+- and vl) 
#*********************************************************************
# Minimum and maximum pt for 4-momenta sum of leptons                *
#*********************************************************************
 0   = ptllmin  ! Minimum pt for 4-momenta sum of leptons(l and vl)
 -1  = ptllmax  ! Maximum pt for 4-momenta sum of leptons(l and vl)
#*********************************************************************
# Inclusive cuts                                                     *
#*********************************************************************
 0  = xptj ! minimum pt for at least one jet  
 0  = xptb ! minimum pt for at least one b 
 0  = xpta ! minimum pt for at least one photon 
 0  = xptl ! minimum pt for at least one charged lepton 
#*********************************************************************
# Control the pt's of the jets sorted by pt                          *
#*********************************************************************
 0   = ptj1min ! minimum pt for the leading jet in pt
 0   = ptj2min ! minimum pt for the second jet in pt
 0   = ptj3min ! minimum pt for the third jet in pt
 0   = ptj4min ! minimum pt for the fourth jet in pt
 -1  = ptj1max ! maximum pt for the leading jet in pt 
 -1  = ptj2max ! maximum pt for the second jet in pt
 -1  = ptj3max ! maximum pt for the third jet in pt
 -1  = ptj4max ! maximum pt for the fourth jet in pt
 0   = cutuse  ! reject event if fails any (0) / all (1) jet pt cuts
#*********************************************************************
# Control the pt's of leptons sorted by pt                           *
#*********************************************************************
 0   = ptl1min ! minimum pt for the leading lepton in pt
 0   = ptl2min ! minimum pt for the second lepton in pt
 0   = ptl3min ! minimum pt for the third lepton in pt
 0   = ptl4min ! minimum pt for the fourth lepton in pt
 -1  = ptl1max ! maximum pt for the leading lepton in pt 
 -1  = ptl2max ! maximum pt for the second lepton in pt
 -1  = ptl3max ! maximum pt for the third lepton in pt
 -1  = ptl4max ! maximum pt for the fourth lepton in pt
#*********************************************************************
# Control the Ht(k)=Sum of k leading jets                            *
#*********************************************************************
 0   = htjmin ! minimum jet HT=Sum(jet pt)
 -1  = htjmax ! maximum jet HT=Sum(jet pt)
 0   = ihtmin  !inclusive Ht for all partons (including b)
 -1  = ihtmax  !inclusive Ht for all partons (including b)
 0   = ht2min ! minimum Ht for the two leading jets
 0   = ht3min ! minimum Ht for the three leading jets
 0   = ht4min ! minimum Ht for the four leading jets
 -1  = ht2max ! maximum Ht for the two leading jets
 -1  = ht3max ! maximum Ht for the three leading jets
 -1  = ht4max ! maximum Ht for the four leading jets
#***********************************************************************
# Photon-isolation cuts, according to hep-ph/9801442                   *
# When ptgmin=0, all the other parameters are ignored                  *
# When ptgmin>0, pta and draj are not going to be used                 *
#***********************************************************************
   0 = ptgmin ! Min photon transverse momentum
 0.4 = R0gamma ! Radius of isolation code
 1.0 = xn ! n parameter of eq.(3.4) in hep-ph/9801442
 1.0 = epsgamma ! epsilon_gamma parameter of eq.(3.4) in hep-ph/9801442
 .true. = isoEM ! isolate photons from EM energy (photons and leptons)
#*********************************************************************
# WBF cuts                                                           *
#*********************************************************************
 0   = xetamin ! minimum rapidity for two jets in the WBF case  
 0   = deltaeta ! minimum rapidity for two jets in the WBF case 
#*********************************************************************
# KT DURHAM CUT                                                      *
#*********************************************************************
 -1    =  ktdurham        
 0.4  =  dparameter 
#*********************************************************************
# maximal pdg code for quark to be considered as a light jet         *
# (otherwise b cuts are applied)                                     *
#*********************************************************************
 4 = maxjetflavor    ! Maximum jet pdg code
#*********************************************************************
# Jet measure cuts                                                   *
#*********************************************************************
 0   = xqcut   ! minimum kt jet measure between partons
#*********************************************************************
#
#*********************************************************************
# Store info for systematics studies                                 *
# WARNING: If use_syst is T, matched Pythia output is                *
#          meaningful ONLY if plotted taking matchscale              *
#          reweighting into account!                                 *
#*********************************************************************
   F  = use_syst      ! Enable systematics studies
#
#**************************************
# Parameter of the systematics study
#  will be used by SysCalc (if installed)
#**************************************                                  
#
0.5 1 2 = sys_scalefact  # factorization/renormalization scale factor
0.5 1 2 = sys_alpsfact  # \alpha_s emission scale factors
30 50 = sys_matchscale # variation of merging scale
# PDF sets and number of members (0 or none for all members).
CT10nlo.LHgrid = sys_pdf # matching scales
# MSTW2008nlo68cl.LHgrid 1  = sys_pdf
</MGRunCard>
<slha>
######################################################################
## PARAM_CARD AUTOMATICALY GENERATED BY MG5 FOLLOWING UFO MODEL   ####
######################################################################
##                                                                  ##
##  Width set on Auto will be computed following the information    ##
##        present in the decay.py files of the model.               ##
##        See  arXiv:1402.1178 for more details.                    ##
##                                                                  ##
######################################################################

###################################
## INFORMATION FOR BSM
###################################
Block bsm 
    1 1.000000e+00 # ctr 

###################################
## INFORMATION FOR MASS
###################################
Block mass 
    5 4.700000e+00 # MB 
    6 1.720000e+02 # MT 
   15 1.777000e+00 # MTA 
   23 9.118760e+01 # MZ 
   25 1.250000e+02 # MH 
## Dependent parameters, given by model restrictions.
## Those values should be edited following the 
## analytical expression. MG5 ignores those values 
## but they are important for interfacing the output of MG5
## to external program such as Pythia.
  1 0.000000 # d : 0.0 
  2 0.000000 # u : 0.0 
  3 0.000000 # s : 0.0 
  4 0.000000 # c : 0.0 
  11 0.000000 # e- : 0.0 
  12 0.000000 # ve : 0.0 
  13 0.000000 # mu- : 0.0 
  14 0.000000 # vm : 0.0 
  16 0.000000 # vt : 0.0 
  21 0.000000 # g : 0.0 
  22 0.000000 # a : 0.0 
  24 79.824360 # w+ : cmath.sqrt(MZ__exp__2/2. + cmath.sqrt(MZ__exp__4/4. - (aEW*cmath.pi*MZ__exp__2)/(Gf*sqrt__2))) 

###################################
## INFORMATION FOR SMINPUTS
###################################
Block sminputs 
    1 1.279000e+02 # aEWM1 
    2 1.166370e-05 # Gf 
    3 1.184000e-01 # aS 

###################################
## INFORMATION FOR YUKAWA
###################################
Block yukawa 
    5 4.700000e+00 # ymb 
    6 1.720000e+02 # ymt 
   15 1.777000e+00 # ymtau 

###################################
## INFORMATION FOR DECAY
###################################
DECAY   6 1.508336e+00 # WT 
DECAY  23 2.495200e+00 # WZ 
DECAY  24 2.085000e+00 # WW 
DECAY  25 5.753088e-03 # WH 
## Dependent parameters, given by model restrictions.
## Those values should be edited following the 
## analytical expression. MG5 ignores those values 
## but they are important for interfacing the output of MG5
## to external program such as Pythia.
DECAY  1 0.000000 # d : 0.0 
DECAY  2 0.000000 # u : 0.0 
DECAY  3 0.000000 # s : 0.0 
DECAY  4 0.000000 # c : 0.0 
DECAY  5 0.000000 # b : 0.0 
DECAY  11 0.000000 # e- : 0.0 
DECAY  12 0.000000 # ve : 0.0 
DECAY  13 0.000000 # mu- : 0.0 
DECAY  14 0.000000 # vm : 0.0 
DECAY  15 0.000000 # ta- : 0.0 
DECAY  16 0.000000 # vt : 0.0 
DECAY  21 0.000000 # g : 0.0 
DECAY  22 0.000000 # a : 0.0
</slha>
## END BANNER##
<MGGenerationInfo>
#  Number of Events        :        20000
#  Integrated weight (pb)  :  0.79826E+00
#  Truncated wgt (pb)      :  0.00000E+00
#  Unit wgt                :  0.39913E-04
</MGGenerationInfo>
</header>
<init>
     2212     2212  0.50000000000E+05  0.50000000000E+05 0 0  247000  247000  3   1
  0.79826021460E+00  0.38254010284E-03  0.39913000000E-04   0
<generator name='MadGraph5_aMC@NLO' version='#5.2.2.3'>please cite 1405.0301 </generator>
</init>
<event>
 4   0  0.3991300E-04  0.3605492E+03  0.7818609E-02  0.1058367E+00
       21   -1    0    0  502  501   0.0000000000E+00   0.0000000000E+00   9.3477545092E+01   9.3477545092E+01   0.0000000000E+00  0.  1
       21   -1    0    0  501  502   0.0000000000E+00   0.0000000000E+00  -3.4766572251E+02   3.4766572251E+02   0.0000000000E+00  0.  1
       25    1    1    2    0    0  -4.6815546800E+01  -9.7129507172E+01  -2.1573132240E+02   2.7164469450E+02   1.2500000000E+02  0.  0
       25    1    1    2    0    0   4.6815546800E+01   9.7129507172E+01  -3.8456855020E+01   1.6949857310E+02   1.2500000000E+02  0.  0
</event>
<event>
 4   0  0.3991300E-04  0.4756160E+03  0.7818609E-02  0.1020347E+00
       21   -1    0    0  502  501   0.0000000000E+00   0.0000000000E+00   3.1042644662E+01   3.1042644662E+01   0.0000000000E+00  0. -1
       21   -1    0    0  501  502   0.0000000000E+00   0.0000000000E+00  -1.8217727135E+03   1.8217727135E+03   0.0000000000E+00  0. -1
       25    1    1    2    0    0  -6.2249398523E+01   8.1982004542E+01  -1.5738237069E+03   1.5821321364E+03   1.2500000000E+02  0.  0
       25    1    1    2    0    0   6.2249398523E+01  -8.1982004542E+01  -2.1690636195E+02   2.7068322175E+02   1.2500000000E+02  0.  0
</event>
<event>
 4   0  0.3991300E-04  0.6861156E+03  0.7818609E-02  0.9741275E-01
       21   -1    0    0  502  501   0.0000000000E+00   0.0000000000E+00   1.6272372951E+02   1.6272372951E+02   0.0000000000E+00  0. -1
       21   -1    0    0  501  502   0.0000000000E+00   0.0000000000E+00  -7.2324213919E+02   7.2324213919E+02   0.0000000000E+00  0. -1
       25    1    1    2    0    0   2.5419206162E+02  -1.8784077767E+02  -3.4035422953E+02   4.8100287265E+02   1.2500000000E+02  0.  0
       25    1    1    2    0    0  -2.5419206162E+02   1.8784077767E+02  -2.2016418015E+02   4.0496299604E+02   1.2500000000E+02  0.  0
</event>
<event>
 4   0  0.3991300E-04  0.4560528E+03  0.7818609E-02  0.1025932E+00
       21   -1    0    0  502  501   0.0000000000E+00   0.0000000000E+00   1.2465877367E+01   1.2465877367E+01   0.0000000000E+00  0. -1
       21   -1    0    0  501  502   0.0000000000E+00   0.0000000000E+00  -4.1710686240E+03   4.1710686240E+03   0.0000000000E+00  0. -1
       25    1    1    2    0    0  -1.7599952843E+02   3.0862442910E+01  -1.4678639272E+03   1.4839736633E+03   1.2500000000E+02  0.  0
       25    1    1    2    0    0   1.7599952843E+02  -3.0862442910E+01  -2.6907388194E+03   2.6995608381E+03   1.2500000000E+02  0.  0
</event>
<event>
 4   0  0.3991300E-04  0.5634477E+03  0.7818609E-02  0.9984284E-01
       21   -1    0    0  502  501   0.0000000000E+00   0.0000000000E+00   5.0468691406E+01   5.0468691406E+01   0.0000000000E+00  0. -1
       21   -1    0    0  501  502   0.0000000000E+00   0.0000000000E+00  -1.5726251643E+03   1.5726251643E+03   0.0000000000E+00  0. -1
       25    1    1    2    0    0   2.4236047395E+02   5.1354358942E+01  -6.2091576322E+02   6.8010091496E+02   1.2500000000E+02  0.  0
       25    1    1    2    0    0  -2.4236047395E+02  -5.1354358942E+01  -9.0124070963E+02   9.4299294070E+02   1.2500000000E+02  0.  0
</event>
<event>
 4   0  0.3991300E-04  0.5625938E+03  0.7818609E-02  0.9986203E-01
       21   -1    0    0  502  501   0.0000000000E+00   0.0000000000E+00   1.9004914420E+02   1.9004914420E+02   0.0000000000E+00  0.  1
       21   -1    0    0  501  502   0.0000000000E+00   0.0000000000E+00  -4.1635523223E+02   4.1635523223E+02   0.0000000000E+00  0.  1
       25    1    1    2    0    0   1.5078890913E+02  -1.8657718265E+02  -2.9977774714E+01   2.7216172982E+02   1.2500000000E+02  0.  0
       25    1    1    2    0    0  -1.5078890913E+02   1.8657718265E+02  -1.9632831331E+02   3.3424264661E+02   1.2500000000E+02  0.  0
</event>
<event>
 4   0  0.3991300E-04  0.5254108E+03  0.7818609E-02  0.1007351E+00
       21   -1    0    0  502  501   0.0000000000E+00   0.0000000000E+00   4.7618627182E+00   4.7618627182E+00   0.0000000000E+00  0. -1
       21   -1    0    0  501  502   0.0000000000E+00   0.0000000000E+00  -1.4493095718E+04   1.4493095718E+04   0.0000000000E+00  0. -1
       25    1    1    2    0    0  -1.3203702142E+02  -1.8860146364E+02  -7.7854790775E+03   7.7898853492E+03   1.2500000000E+02  0.  0
       25    1    1    2    0    0   1.3203702142E+02   1.8860146364E+02  -6.7028547781E+03   6.7079722319E+03   1.2500000000E+02  0.  0
</event>
<event>
 4   0  0.3991300E-04  0.4880276E+03  0.7818609E-02  0.1016952E+00
       21   -1    0    0  502  501   0.0000000000E+00   0.0000000000E+00   2.4206242019E+01   2.4206242019E+01   0.0000000000E+00  0.  1
       21   -1    0    0  501  502   0.0000000000E+00   0.0000000000E+00  -2.4598086365E+03   2.4598086365E+03   0.0000000000E+00  0.  1
       25    1    1    2    0    0  -1.6678608639E+02   6.5855510392E+01  -6.6575915499E+02   7.0072448174E+02   1.2500000000E+02  0.  0
       25    1    1    2    0    0   1.6678608639E+02  -6.5855510392E+01  -1.7698432395E+03   1.7832903968E+03   1.2500000000E+02  0.  0
</event>
<event>
 4   0  0.3991300E-04  0.5323001E+03  0.7818609E-02  0.1005676E+00
       21   -1    0    0  502  501   0.0000000000E+00   0.0000000000E+00   2.7978831083E+02   2.7978831083E+02   0.0000000000E+00  0. -1
       21   -1    0    0  501  502   0.0000000000E+00   0.0000000000E+00  -2.5317658140E+02   2.5317658140E+02   0.0000000000E+00  0. -1
       25    1    1    2    0    0  -4.1606818966E+01  -3.9569541997E+01  -2.1482507357E+02   2.5509152921E+02   1.2500000000E+02  0.  0
       25    1    1    2    0    0   4.1606818966E+01   3.9569541997E+01   2.4143680299E+02   2.7787336302E+02   1.2500000000E+02  0.  0
</event>
<event>
 4   0  0.3991300E-04  0.4050594E+03  0.7818609E-02  0.1042042E+00
       21   -1    0    0  502  501   0.0000000000E+00   0.0000000000E+00   3.0511641053E+01   3.0511641053E+01   0.0000000000E+00  0.  1
       21   -1    0    0  501  502   0.0000000000E+00   0.0000000000E+00  -1.3443481991E+03   1.3443481991E+03   0.0000000000E+00  0.  1
       25    1    1    2    0    0   6.5014890644E+01   1.3884636236E+02  -8.0440170371E+02   8.2836727922E+02   1.2500000000E+02  0.  0
       25    1    1    2    0    0  -6.5014890644E+01  -1.3884636236E+02  -5.0943485435E+02   5.4649256095E+02   1.2500000000E+02  0.  0
</event>
<event>
 4   0  0.3991300E-04  0.3608061E+03  0.7818609E-02  0.1058265E+00
       21   -1    0    0  502  501   0.0000000000E+00   0.0000000000E+00   1.9402897662E+03   1.9402897662E+03   0.0000000000E+00  0.  1
       21   -1    0    0  501  502   0.0000000000E+00   0.0000000000E+00  -1.6773406603E+01   1.6773406603E+01   0.0000000000E+00  0.  1
       25    1    1    2    0    0   1.2172619653E+02   8.0601464607E-01   1.2104627080E+03   1.2229729695E+03   1.2500000000E+02  0.  0
       25    1    1    2    0    0  -1.2172619653E+02  -8.0601464607E-01   7.1305365153E+02   7.3409020327E+02   1.2500000000E+02  0.  0
</event>
<event>
 4   0  0.3991300E-04  0.4960707E+03  0.7818609E-02  0.1014810E+00
       21   -1    0    0  502  501   0.0000000000E+00   0.0000000000E+00   8.7193601354E+01   8.7193601354E+01   0.0000000000E+00  0.  1
       21   -1    0    0  501  502   0.0000000000E+00   0.0000000000E+00  -7.0557391041E+02   7.0557391041E+02   0.0000000000E+00  0.  1
       25    1    1    2    0    0  -3.6434093119E+01  -9.8009145030E+01  -6.0800932694E+02   6.2947087089E+02   1.2500000000E+02  0.  0
       25    1    1    2    0    0   3.6434093119E+01   9.8009145030E+01  -1.0370982115E+01   1.6329664087E+02   1.2500000000E+02  0.  0
</event>
<event>
 4   0  0.3991300E-04  0.3801853E+04  0.7818609E-02  0.8045757E-01
       21   -1    0    0  502  501   0.0000000000E+00   0.0000000000E+00   9.3680530436E+02   9.3680530436E+02   0.0000000000E+00  0. -1
       21   -1    0    0  501  502   0.0000000000E+00   0.0000000000E+00  -3.8572810381E+03   3.8572810381E+03   0.0000000000E+00  0.  1
       25    1    1    2    0    0   4.6041793232E+02   1.0869866794E+03  -3.3324409236E+03   3.5375573809E+03   1.2500000000E+02  0.  0
       25    1    1    2    0    0  -4.6041793232E+02  -1.0869866794E+03   4.1196518985E+02   1.2565289616E+03   1.2500000000E+02  0.  0
</event>
<event>
 4   0  0.3991300E-04  0.8385253E+03  0.7818609E-02  0.9505869E-01
       21   -1    0    0  502  501   0.0000000000E+00   0.0000000000E+00   8.4179872484E+02   8.4179872484E+02   0.0000000000E+00  0. -1
       21   -1    0    0  501  502   0.0000000000E+00   0.0000000000E+00  -2.0881615697E+02   2.0881615697E+02   0.0000000000E+00  0. -1
       25    1    1    2    0    0  -2.8485104915E+02   1.4687332628E+02   1.6194439585E+01   3.4438227894E+02   1.2500000000E+02  0.  0
       25    1    1    2    0    0   2.8485104915E+02  -1.4687332628E+02   6.1678812828E+02   7.0623260288E+02   1.2500000000E+02  0.  0
</event>
<event>
 4   0  0.3991300E-04  0.4043367E+03  0.7818609E-02  0.1042288E+00
       21   -1    0    0  502  501   0.0000000000E+00   0.0000000000E+00   2.8889210333E+01   2.8889210333E+01   0.0000000000E+00  0.  1
       21   -1    0    0  501  502   0.0000000000E+00   0.0000000000E+00  -1.4147858099E+03   1.4147858099E+03   0.0000000000E+00  0.  1
       25    1    1    2    0    0  -1.0242014342E+02   4.9795249327E+01  -1.0885725146E+03   1.1016281461E+03   1.2500000000E+02  0.  0
       25    1    1    2    0    0   1.0242014342E+02  -4.9795249327E+01  -2.9732408495E+02   3.4204687416E+02   1.2500000000E+02  0.  0
</event>
<event>
 4   0  0.3991300E-04  0.5411181E+03  0.7818609E-02  0.1003571E+00
       21   -1    0    0  502  501   0.0000000000E+00   0.0000000000E+00   2.9016585892E+01   2.9016585892E+01   0.0000000000E+00  0. -1
       21   -1    0    0  501  502   0.0000000000E+00   0.0000000000E+00  -2.5227708414E+03   2.5227708414E+03   0.0000000000E+00  0. -1
       25    1    1    2    0    0   1.0910988275E+02  -1.9565819984E+02  -8.4148288910E+02   8.7971901783E+02   1.2500000000E+02  0.  0
       25    1    1    2    0    0  -1.0910988275E+02   1.9565819984E+02  -1.6522713664E+03   1.6720684094E+03   1.2500000000E+02  0.  0
</event>
<event>
 4   0  0.3991300E-04  0.5986852E+03  0.7818609E-02  0.9908138E-01
       21   -1    0    0  502  501   0.0000000000E+00   0.0000000000E+00   5.9558203182E+01   5.9558203182E+01   0.0000000000E+00  0. -1
       21   -1    0    0  501  502   0.0000000000E+00   0.0000000000E+00  -1.5045113830E+03   1.5045113830E+03   0.0000000000E+00  0. -1
       25    1    1    2    0    0  -4.7943942201E+01  -2.4537895846E+02  -1.0022899206E+03   1.0405381011E+03   1.2500000000E+02  0.  0
       25    1    1    2    0    0   4.7943942201E+01   2.4537895846E+02  -4.4266325929E+02   5.2353148518E+02   1.2500000000E+02  0.  0
</event>
<event>
 4   0  0.3991300E-04  0.3516900E+03  0.7818609E-02  0.1061924E+00
       21   -1    0    0  502  501   0.0000000000E+00   0.0000000000E+00   2.2708893311E+02   2.2708893311E+02   0.0000000000E+00  0. -1
       21   -1    0    0  501  502   0.0000000000E+00   0.0000000000E+00  -1.3616456358E+02   1.3616456358E+02   0.0000000000E+00  0. -1
       25    1    1    2    0    0  -9.8762744108E+01   5.8893512435E+01  -1.5757095450E+00   1.6985290192E+02   1.2500000000E+02  0.  0
       25    1    1    2    0    0   9.8762744108E+01  -5.8893512435E+01   9.2500079073E+01   1.9340059477E+02   1.2500000000E+02  0.  0
</event>
<event>
 4   0  0.3991300E-04  0.9131675E+03  0.7818609E-02  0.9409269E-01
       21   -1    0    0  502  501   0.0000000000E+00   0.0000000000E+00   9.6732181297E+03   9.6732181297E+03   0.0000000000E+00  0. -1
       21   -1    0    0  501  502   0.0000000000E+00   0.0000000000E+00  -2.1551123247E+01   2.1551123247E+01   0.0000000000E+00  0. -1
       25    1    1    2    0    0  -6.5022445871E+00   2.1518385581E+02   7.6231808025E+02   8.0193530067E+02   1.2500000000E+02  0.  0
       25    1    1    2    0    0   6.5022445871E+00  -2.1518385581E+02   8.8893489262E+03   8.8928339523E+03   1.2500000000E+02  0.  0
</event>
<event>
 4   0  0.3991300E-04  0.6606090E+03  0.7818609E-02  0.9787073E-01
       21   -1    0    0  502  501   0.0000000000E+00   0.0000000000E+00   6.3388228107E+03   6.3388228107E+03   0.0000000000E+00  0. -1
       21   -1    0    0  501  502   0.0000000000E+00   0.0000000000E+00  -1.7211564271E+01   1.7211564271E+01   0.0000000000E+00  0. -1
       25    1    1    2    0    0  -2.9948475442E+02   3.5868494558E+01   2.6798867627E+03   2.6997028962E+03   1.2500000000E+02  0.  0
       25    1    1    2    0    0   2.9948475442E+02  -3.5868494558E+01   3.6417244837E+03   3.6563314787E+03   1.2500000000E+02  0.  0
</event>
<event>
 4   0  0.3991300E-04  0.6000193E+03  0.7818609E-02  0.9905366E-01
       21   -1    0    0  502  501   0.0000000000E+00   0.0000000000E+00   1.3271842909E+03   1.3271842909E+03   0.0000000000E+00  0.  1
       21   -1    0    0  501  502   0.0000000000E+00   0.0000000000E+00  -6.7817107074E+01   6.7817107074E+01   0.0000000000E+00  0. -1
       25    1    1    2    0    0  -1.6735341369E+02   9.3383177085E+01   1.0808226627E+03   1.1047760910E+03   1.2500000000E+02  0.  0
       25    1    1    2    0    0   1.6735341369E+02  -9.3383177085E+01   1.7854452112E+02   2.9022530706E+02   1.2500000000E+02  0.  0
</event>
<event>
 4   0  0.3991300E-04  0.4047148E+03  0.7818609E-02  0.1042159E+00
       21   -1    0    0  502  501   0.0000000000E+00   0.0000000000E+00   7.1993556516E+00   7.1993556516E+00   0.0000000000E+00  0. -1
       21   -1    0    0  501  502   0.0000000000E+00   0.0000000000E+00  -5.6878044320E+03   5.6878044320E+03   0.0000000000E+00  0. -1
       25    1    1    2    0    0  -6.6109596856E+01  -7.6446024186E+01  -1.1106315133E+03   1.1222040063E+03   1.2500000000E+02  0.  0
       25    1    1    2    0    0   6.6109596856E+01   7.6446024186E+01  -4.5699735630E+03   4.5727997813E+03   1.2500000000E+02  0.  0
</event>
<event>
 4   0  0.3991300E-04  0.5229982E+03  0.7818609E-02  0.1007944E+00
       21   -1    0    0  502  501   0.0000000000E+00   0.0000000000E+00   4.4294457712E+01   4.4294457712E+01   0.0000000000E+00  0.  1
       21   -1    0    0  501  502   0.0000000000E+00   0.0000000000E+00  -1.5437999070E+03   1.5437999070E+03   0.0000000000E+00  0.  1
       25    1    1    2    0    0  -2.2200032309E+02   3.1200623441E+00  -5.7106440051E+02   6.2532665685E+02   1.2500000000E+02  0.  0
       25    1    1    2    0    0   2.2200032309E+02  -3.1200623441E+00  -9.2844104874E+02   9.6276770783E+02   1.2500000000E+02  0.  0
</event>
<event>
 4   0  0.3991300E-04  0.4389590E+03  0.7818609E-02  0.1031067E+00
       21   -1    0    0  502  501   0.0000000000E+00   0.0000000000E+00   4.1674952715E+02   4.1674952715E+02   0.0000000000E+00  0. -1
       21   -1    0    0  501  502   0.0000000000E+00   0.0000000000E+00  -1.1558801941E+02   1.1558801941E+02   0.0000000000E+00  0. -1
       25    1    1    2    0    0  -3.9356117121E+00   1.6786155436E+02   7.0565914976E+01   2.2090164967E+02   1.2500000000E+02  0.  0
       25    1    1    2    0    0   3.9356117121E+00  -1.6786155436E+02   2.3059559276E+02   3.1143589689E+02   1.2500000000E+02  0.  0
</event>
<event>
 4   0  0.3991300E-04  0.3671027E+03  0.7818609E-02  0.1055806E+00
       21   -1    0    0  502  501   0.0000000000E+00   0.0000000000E+00   2.1028422862E+02   2.1028422862E+02   0.0000000000E+00  0.  1
       21   -1    0    0  501  502   0.0000000000E+00   0.0000000000E+00  -1.6021697598E+02   1.6021697598E+02   0.0000000000E+00  0.  1
       25    1    1    2    0    0   1.1981980057E+02   1.7372799148E+01  -3.3880606701E+01   1.7728929542E+02   1.2500000000E+02  0.  0
       25    1    1    2    0    0  -1.1981980057E+02  -1.7372799148E+01   8.3947859340E+01   1.9321190918E+02   1.2500000000E+02  0.  0
</event>
<event>
 4   0  0.3991300E-04  0.5560810E+03  0.7818609E-02  0.1000096E+00
       21   -1    0    0  502  501   0.0000000000E+00   0.0000000000E+00   2.0817642123E+03   2.0817642123E+03   0.0000000000E+00  0.  1
       21   -1    0    0  501  502   0.0000000000E+00   0.0000000000E+00  -3.7135101936E+01   3.7135101936E+01   0.0000000000E+00  0.  1
       25    1    1    2    0    0  -1.3803570608E+02  -1.5466182839E+02   5.0114524593E+02   5.5654801664E+02   1.2500000000E+02  0.  0
       25    1    1    2    0    0   1.3803570608E+02   1.5466182839E+02   1.5434838644E+03   1.5623512975E+03   1.2500000000E+02  0.  0
</event>
<event>
 4   0  0.3991300E-04  0.3924042E+03  0.7818609E-02  0.1046442E+00
       21   -1    0    0  502  501   0.0000000000E+00   0.0000000000E+00   3.8505334432E+01   3.8505334432E+01   0.0000000000E+00  0.  1
       21   -1    0    0  501  502   0.0000000000E+00   0.0000000000E+00  -9.9973826975E+02   9.9973826975E+02   0.0000000000E+00  0.  1
       25    1    1    2    0    0  -1.3267381110E+02  -5.3840148741E+01  -6.0940060290E+02   6.3835350440E+02   1.2500000000E+02  0.  0
       25    1    1    2    0    0   1.3267381110E+02   5.3840148741E+01  -3.5183233242E+02   3.9989009978E+02   1.2500000000E+02  0.  0
</event>
<event>
 4   0  0.3991300E-04  0.3910800E+03  0.7818609E-02  0.1046913E+00
       21   -1    0    0  502  501   0.0000000000E+00   0.0000000000E+00   1.3191419868E+02   1.3191419868E+02   0.0000000000E+00  0. -1
       21   -1    0    0  501  502   0.0000000000E+00   0.0000000000E+00  -2.8985432761E+02   2.8985432761E+02   0.0000000000E+00  0. -1
       25    1    1    2    0    0  -1.1822495402E+02   9.2693482150E+01  -7.2007451847E+01   2.0827696586E+02   1.2500000000E+02  0.  0
       25    1    1    2    0    0   1.1822495402E+02  -9.2693482150E+01  -8.5932677079E+01   2.1349156043E+02   1.2500000000E+02  0.  0
</event>
<event>
 4   0  0.3991300E-04  0.5676299E+03  0.7818609E-02  0.9974937E-01
       21   -1    0    0  502  501   0.0000000000E+00   0.0000000000E+00   3.1330538084E+01   3.1330538084E+01   0.0000000000E+00  0.  1
       21   -1    0    0  501  502   0.0000000000E+00   0.0000000000E+00  -2.5710039624E+03   2.5710039624E+03   0.0000000000E+00  0.  1
       25    1    1    2    0    0  -2.3655139168E+02  -3.9668202626E+01  -8.7556945908E+02   9.1639347711E+02   1.2500000000E+02  0.  0
       25    1    1    2    0    0   2.3655139168E+02   3.9668202626E+01  -1.6641039653E+03   1.6859410234E+03   1.2500000000E+02  0.  0
</event>
<event>
 4   0  0.3991300E-04  0.4463767E+03  0.7818609E-02  0.1028808E+00
       21   -1    0    0  502  501   0.0000000000E+00   0.0000000000E+00   5.7849364898E+02   5.7849364898E+02   0.0000000000E+00  0.  1
       21   -1    0    0  501  502   0.0000000000E+00   0.0000000000E+00  -8.6108193992E+01   8.6108193992E+01   0.0000000000E+00  0.  1
       25    1    1    2    0    0  -1.0065298962E+02  -7.3981203510E+00   1.5525275455E+01   1.6140567116E+02   1.2500000000E+02  0.  0
       25    1    1    2    0    0   1.0065298962E+02   7.3981203510E+00   4.7686017953E+02   5.0319617181E+02   1.2500000000E+02  0.  0
</event>
<event>
 4   0  0.3991300E-04  0.4586838E+03  0.7818609E-02  0.1025164E+00
       21   -1    0    0  502  501   0.0000000000E+00   0.0000000000E+00   2.5777264785E+03   2.5777264785E+03   0.0000000000E+00  0. -1
       21   -1    0    0  501  502   0.0000000000E+00   0.0000000000E+00  -2.0404692583E+01   2.0404692583E+01   0.0000000000E+00  0. -1
       25    1    1    2    0    0   3.8286029673E+01  -1.5456241799E+02   6.6813896357E+02   6.9813325072E+02   1.2500000000E+02  0.  0
       25    1    1    2    0    0  -3.8286029673E+01   1.5456241799E+02   1.8891828223E+03   1.8999979203E+03   1.2500000000E+02  0.  0
</event>
<event>
 4   0  0.3991300E-04  0.6507605E+03  0.7818609E-02  0.9805353E-01
       21   -1    0    0  502  501   0.0000000000E+00   0.0000000000E+00   8.2205971370E+02   8.2205971370E+02   0.0000000000E+00  0.  1
       21   -1    0    0  501  502   0.0000000000E+00   0.0000000000E+00  -1.2878906914E+02   1.2878906914E+02   0.0000000000E+00  0.  1
       25    1    1    2    0    0  -2.6233055219E+01  -4.5874764386E+01   7.7873276685E+02   7.9046972704E+02   1.2500000000E+02  0.  0
       25    1    1    2    0    0   2.6233055219E+01   4.5874764386E+01  -8.5462122289E+01   1.6037905580E+02   1.2500000000E+02  0.  0
</event>
<event>
 4   0  0.3991300E-04  0.6860702E+03  0.7818609E-02  0.9741355E-01
       21   -1    0    0  502  501   0.0000000000E+00   0.0000000000E+00   7.1908227450E+01   7.1908227450E+01   0.0000000000E+00  0.  1
       21   -1    0    0  501  502   0.0000000000E+00   0.0000000000E+00  -1.6364342160E+03   1.6364342160E+03   0.0000000000E+00  0.  1
       25    1    1    2    0    0  -7.9565074493E+01   2.5278204712E+02  -1.2264314539E+03   1.2609474516E+03   1.2500000000E+02  0.  0
       25    1    1    2    0    0   7.9565074493E+01  -2.5278204712E+02  -3.3809453463E+02   4.4739499189E+02   1.2500000000E+02  0.  0
</event>
<event>
 4   0  0.3991300E-04  0.4178224E+03  0.7818609E-02  0.1037777E+00
       21   -1    0    0  502  501   0.0000000000E+00   0.0000000000E+00   7.7363271714E+02   7.7363271714E+02   0.0000000000E+00  0.  1
       21   -1    0    0  501  502   0.0000000000E+00   0.0000000000E+00  -5.6414230161E+01   5.6414230161E+01   0.0000000000E+00  0.  1
       25    1    1    2    0    0  -1.8027891929E+01  -1.1974071068E+02   1.2902083566E+02   2.1664306755E+02   1.2500000000E+02  0.  0
       25    1    1    2    0    0   1.8027891929E+01   1.1974071068E+02   5.8819765132E+02   6.1340387976E+02   1.2500000000E+02  0.  0
</event>
<event>
 4   0  0.3991300E-04  0.4927140E+03  0.7818609E-02  0.1015698E+00
       21   -1    0    0  502  501   0.0000000000E+00   0.0000000000E+00   1.3711774298E+02   1.3711774298E+02   0.0000000000E+00  0. -1
       21   -1    0    0  501  502   0.0000000000E+00   0.0000000000E+00  -4.4262529195E+02   4.4262529195E+02   0.0000000000E+00  0. -1
       25    1    1    2    0    0  -2.0515696104E+02   4.6757256358E+01  -1.1965795569E+02   2.7243099318E+02   1.2500000000E+02  0.  0
       25    1    1    2    0    0   2.0515696104E+02  -4.6757256358E+01  -1.8584959328E+02   3.0731204175E+02   1.2500000000E+02  0.  0
</event>
<event>
 4   0  0.3991300E-04  0.4343777E+03  0.7818609E-02  0.1032486E+00
       21   -1    0    0  502  501   0.0000000000E+00   0.0000000000E+00   2.3735673207E+01   2.3735673207E+01   0.0000000000E+00  0. -1
       21   -1    0    0  501  502   0.0000000000E+00   0.0000000000E+00  -1.9873464226E+03   1.9873464226E+03   0.0000000000E+00  0. -1
       25    1    1    2    0    0  -1.6462277739E+01   1.7337909790E+02  -8.2044591138E+02   8.4799045494E+02   1.2500000000E+02  0.  0
       25    1    1    2    0    0   1.6462277739E+01  -1.7337909790E+02  -1.1431648380E+03   1.1630916408E+03   1.2500000000E+02  0.  0
</event>
<event>
 4   0  0.3991300E-04  0.4051996E+03  0.7818609E-02  0.1041994E+00
       21   -1    0    0  502  501   0.0000000000E+00   0.0000000000E+00   1.7071982145E+02   1.7071982145E+02   0.0000000000E+00  0. -1
       21   -1    0    0  501  502   0.0000000000E+00   0.0000000000E+00  -2.4043305892E+02   2.4043305892E+02   0.0000000000E+00  0. -1
       25    1    1    2    0    0  -2.1361491399E+01   2.6188735420E+01  -1.9296481202E+02   2.3238455598E+02   1.2500000000E+02  0.  0
       25    1    1    2    0    0   2.1361491399E+01  -2.6188735420E+01   1.2325157455E+02   1.7876832439E+02   1.2500000000E+02  0.  0
</event>
<event>
 4   0  0.3991300E-04  0.1910308E+04  0.7818609E-02  0.8649742E-01
       21   -1    0    0  502  501   0.0000000000E+00   0.0000000000E+00   3.3032075461E+02   3.3032075461E+02   0.0000000000E+00  0. -1
       21   -1    0    0  501  502   0.0000000000E+00   0.0000000000E+00  -2.7619198717E+03   2.7619198717E+03   0.0000000000E+00  0.  1
       25    1    1    2    0    0   1.0053663120E+02   6.8564037871E+02  -1.7115381869E+02   7.2465783152E+02   1.2500000000E+02  0.  0
       25    1    1    2    0    0  -1.0053663120E+02  -6.8564037871E+02  -2.2604452984E+03   2.3675827948E+03   1.2500000000E+02  0.  0
</event>
<event>
 4   0  0.3991300E-04  0.3447495E+03  0.7818609E-02  0.1064791E+00
       21   -1    0    0  502  501   0.0000000000E+00   0.0000000000E+00   4.4327266491E+03   4.4327266491E+03   0.0000000000E+00  0. -1
       21   -1    0    0  501  502   0.0000000000E+00   0.0000000000E+00  -6.7031092222E+00   6.7031092222E+00   0.0000000000E+00  0. -1
       25    1    1    2    0    0  -7.9263001680E+01  -5.2741542253E+01   3.1257324469E+03   3.1296793164E+03   1.2500000000E+02  0.  0
       25    1    1    2    0    0   7.9263001680E+01   5.2741542253E+01   1.3002910930E+03   1.3097504419E+03   1.2500000000E+02  0.  0
</event>
<event>
 4   0  0.3991300E-04  0.8753731E+03  0.7818609E-02  0.9456901E-01
       21   -1    0    0  502  501   0.0000000000E+00   0.0000000000E+00   1.0650327105E+02   1.0650327105E+02   0.0000000000E+00  0.  1
       21   -1    0    0  501  502   0.0000000000E+00   0.0000000000E+00  -1.7987194735E+03   1.7987194735E+03   0.0000000000E+00  0.  1
       25    1    1    2    0    0   2.5351207457E+02   2.2027181448E+02  -1.3930755379E+03   1.4384270919E+03   1.2500000000E+02  0.  0
       25    1    1    2    0    0  -2.5351207457E+02  -2.2027181448E+02  -2.9914066454E+02   4.6679565270E+02   1.2500000000E+02  0.  0
</event>
<event>
 4   0  0.3991300E-04  0.3234857E+03  0.7818609E-02  0.1074056E+00
       21   -1    0    0  502  501   0.0000000000E+00   0.0000000000E+00   3.1160812039E+01   3.1160812039E+01   0.0000000000E+00  0. -1
       21   -1    0    0  501  502   0.0000000000E+00   0.0000000000E+00  -8.3954006178E+02   8.3954006178E+02   0.0000000000E+00  0. -1
       25    1    1    2    0    0  -4.0800579378E+01  -9.3365505661E+01  -4.3758581149E+02   4.6635624510E+02   1.2500000000E+02  0.  0
       25    1    1    2    0    0   4.0800579378E+01   9.3365505661E+01  -3.7079343825E+02   4.0434462872E+02   1.2500000000E+02  0.  0
</event>
<event>
 4   0  0.3991300E-04  0.5103478E+03  0.7818609E-02  0.1011113E+00
       21   -1    0    0  502  501   0.0000000000E+00   0.0000000000E+00   8.0389221988E+01   8.0389221988E+01   0.0000000000E+00  0. -1
       21   -1    0    0  501  502   0.0000000000E+00   0.0000000000E+00  -8.0998063248E+02   8.0998063248E+02   0.0000000000E+00  0. -1
       25    1    1    2    0    0  -1.0214893000E+02   5.5411396998E+01  -6.9574255638E+02   7.1637108510E+02   1.2500000000E+02  0.  0
       25    1    1    2    0    0   1.0214893000E+02  -5.5411396998E+01  -3.3848854119E+01   1.7399876937E+02   1.2500000000E+02  0.  0
</event>
<event>
 4   0  0.3991300E-04  0.4347353E+03  0.7818609E-02  0.1032374E+00
       21   -1    0    0  502  501   0.0000000000E+00   0.0000000000E+00   8.4804932846E+00   8.4804932846E+00   0.0000000000E+00  0.  1
       21   -1    0    0  501  502   0.0000000000E+00   0.0000000000E+00  -5.5714554150E+03   5.5714554150E+03   0.0000000000E+00  0.  1
       25    1    1    2    0    0  -5.8432860394E+01   1.1203767468E+02  -4.3875281000E+03   4.3911268107E+03   1.2500000000E+02  0.  0
       25    1    1    2    0    0   5.8432860394E+01  -1.1203767468E+02  -1.1754468218E+03   1.1888090976E+03   1.2500000000E+02  0.  0
</event>
<event>
 4   0  0.3991300E-04  0.4162673E+03  0.7818609E-02  0.1038288E+00
       21   -1    0    0  502  501   0.0000000000E+00   0.0000000000E+00   1.3842948914E+02   1.3842948914E+02   0.0000000000E+00  0.  1
       21   -1    0    0  501  502   0.0000000000E+00   0.0000000000E+00  -3.1293628949E+02   3.1293628949E+02   0.0000000000E+00  0.  1
       25    1    1    2    0    0   5.8189352853E+01   1.5365425853E+02  -5.8585997753E+01   2.1459951324E+02   1.2500000000E+02  0.  0
       25    1    1    2    0    0  -5.8189352853E+01  -1.5365425853E+02  -1.1592080260E+02   2.3676626539E+02   1.2500000000E+02  0.  0
</event>
<event>
 4   0  0.3991300E-04  0.7815351E+03  0.7818609E-02  0.9587136E-01
       21   -1    0    0  502  501   0.0000000000E+00   0.0000000000E+00   4.3967668912E+01   4.3967668912E+01   0.0000000000E+00  0. -1
       21   -1    0    0  501  502   0.0000000000E+00   0.0000000000E+00  -3.4729904454E+03   3.4729904454E+03   0.0000000000E+00  0. -1
       25    1    1    2    0    0   1.1230888157E+02  -3.3982460361E+02  -2.1409562142E+03   2.1742613820E+03   1.2500000000E+02  0.  0
       25    1    1    2    0    0  -1.1230888157E+02   3.3982460361E+02  -1.2880665623E+03   1.3426967323E+03   1.2500000000E+02  0.  0
</event>
<event>
 4   0  0.3991300E-04  0.5770527E+03  0.7818609E-02  0.9954192E-01
       21   -1    0    0  502  501   0.0000000000E+00   0.0000000000E+00   4.6365817735E+01   4.6365817735E+01   0.0000000000E+00  0. -1
       21   -1    0    0  501  502   0.0000000000E+00   0.0000000000E+00  -1.7954486895E+03   1.7954486895E+03   0.0000000000E+00  0. -1
       25    1    1    2    0    0  -1.7446801725E+02   1.4450475023E+02  -1.2820599505E+03   1.3079080352E+03   1.2500000000E+02  0.  0
       25    1    1    2    0    0   1.7446801725E+02  -1.4450475023E+02  -4.6702292122E+02   5.3390647198E+02   1.2500000000E+02  0.  0
</event>
<event>
 4   0  0.3991300E-04  0.3697524E+03  0.7818609E-02  0.1054788E+00
       21   -1    0    0  502  501   0.0000000000E+00   0.0000000000E+00   6.4093209034E+02   6.4093209034E+02   0.0000000000E+00  0. -1
       21   -1    0    0  501  502   0.0000000000E+00   0.0000000000E+00  -5.3327362420E+01   5.3327362420E+01   0.0000000000E+00  0. -1
       25    1    1    2    0    0  -5.1692010523E+01   8.0554179698E+01   1.1182514528E+02   1.9310852632E+02   1.2500000000E+02  0.  0
       25    1    1    2    0    0   5.1692010523E+01  -8.0554179698E+01   4.7577958264E+02   5.0115092644E+02   1.2500000000E+02  0.  0
</event>
<event>
 4   0  0.3991300E-04  0.3771399E+03  0.7818609E-02  0.1051996E+00
       21   -1    0    0  502  501   0.0000000000E+00   0.0000000000E+00   3.3808577199E+00   3.3808577199E+00   0.0000000000E+00  0.  1
       21   -1    0    0  501  502   0.0000000000E+00   0.0000000000E+00  -1.0517632708E+04   1.0517632708E+04   0.0000000000E+00  0.  1
       25    1    1    2    0    0  -7.7661916607E+01   3.8721833157E+01  -2.1503054063E+03   2.1556829762E+03   1.2500000000E+02  0.  0
       25    1    1    2    0    0   7.7661916607E+01  -3.8721833157E+01  -8.3639464440E+03   8.3653305896E+03   1.2500000000E+02  0.  0
</event>
<event>
 4   0  0.3991300E-04  0.3653502E+03  0.7818609E-02  0.1056485E+00
       21   -1    0    0  502  501   0.0000000000E+00   0.0000000000E+00   2.9191574388E+02   2.9191574388E+02   0.0000000000E+00  0. -1
       21   -1    0    0  501  502   0.0000000000E+00   0.0000000000E+00  -1.1431445284E+02   1.1431445284E+02   0.0000000000E+00  0. -1
       25    1    1    2    0    0  -5.5724312274E+01  -1.1865097250E+02   6.2443012047E+01   1.9159170652E+02   1.2500000000E+02  0.  0
       25    1    1    2    0    0   5.5724312274E+01   1.1865097250E+02   1.1515827900E+02   2.1463849020E+02   1.2500000000E+02  0.  0
</event>
<event>
 4   0  0.3991300E-04  0.3654268E+03  0.7818609E-02  0.1056456E+00
       21   -1    0    0  502  501   0.0000000000E+00   0.0000000000E+00   6.1177221091E+01   6.1177221091E+01   0.0000000000E+00  0.  1
       21   -1    0    0  501  502   0.0000000000E+00   0.0000000000E+00  -5.4569637510E+02   5.4569637510E+02   0.0000000000E+00  0.  1
       25    1    1    2    0    0  -1.0137521828E+02   7.0873125546E+01  -3.2461637309E+02   3.6918928003E+02   1.2500000000E+02  0.  0
       25    1    1    2    0    0   1.0137521828E+02  -7.0873125546E+01  -1.5990278092E+02   2.3768431616E+02   1.2500000000E+02  0.  0
</event>
<event>
 4   0  0.3991300E-04  0.5202462E+03  0.7818609E-02  0.1008625E+00
       21   -1    0    0  502  501   0.0000000000E+00   0.0000000000E+00   3.8616547455E+03   3.8616547455E+03   0.0000000000E+00  0.  1
       21   -1    0    0  501  502   0.0000000000E+00   0.0000000000E+00  -1.7522032255E+01   1.7522032255E+01   0.0000000000E+00  0.  1
       25    1    1    2    0    0   1.9773886224E+02  -1.0111525963E+02   1.5336098593E+03   1.5546411656E+03   1.2500000000E+02  0.  0
       25    1    1    2    0    0  -1.9773886224E+02   1.0111525963E+02   2.3105228540E+03   2.3245356122E+03   1.2500000000E+02  0.  0
</event>
<event>
 4   0  0.3991300E-04  0.4305031E+03  0.7818609E-02  0.1033701E+00
       21   -1    0    0  502  501   0.0000000000E+00   0.0000000000E+00   8.5670848446E+02   8.5670848446E+02   0.0000000000E+00  0. -1
       21   -1    0    0  501  502   0.0000000000E+00   0.0000000000E+00  -5.4082854205E+01   5.4082854205E+01   0.0000000000E+00  0. -1
       25    1    1    2    0    0   8.0792814369E+01  -1.1510827681E+02   6.2250483011E+02   6.5031888928E+02   1.2500000000E+02  0.  0
       25    1    1    2    0    0  -8.0792814369E+01   1.1510827681E+02   1.8012080015E+02   2.6047244939E+02   1.2500000000E+02  0.  0
</event>
<event>
 4   0  0.3991300E-04  0.4090404E+03  0.7818609E-02  0.1040693E+00
       21   -1    0    0  502  501   0.0000000000E+00   0.0000000000E+00   5.2389816034E+02   5.2389816034E+02   0.0000000000E+00  0. -1
       21   -1    0    0  501  502   0.0000000000E+00   0.0000000000E+00  -7.9840923495E+01   7.9840923495E+01   0.0000000000E+00  0. -1
       25    1    1    2    0    0  -1.6096246835E+02  -1.1796031113E+01   2.4043120898E+02   3.1540486493E+02   1.2500000000E+02  0.  0
       25    1    1    2    0    0   1.6096246835E+02   1.1796031113E+01   2.0362602786E+02   2.8833421890E+02   1.2500000000E+02  0.  0
</event>
<event>
 4   0  0.3991300E-04  0.3571487E+03  0.7818609E-02  0.1059719E+00
       21   -1    0    0  502  501   0.0000000000E+00   0.0000000000E+00   8.6856936917E+01   8.6856936917E+01   0.0000000000E+00  0. -1
       21   -1    0    0  501  502   0.0000000000E+00   0.0000000000E+00  -3.6714160488E+02   3.6714160488E+02   0.0000000000E+00  0. -1
       25    1    1    2    0    0  -3.5055019460E+01   2.9361666351E+01  -2.9147537079E+02   3.2042761057E+02   1.2500000000E+02  0.  0
       25    1    1    2    0    0   3.5055019460E+01  -2.9361666351E+01   1.1190702821E+01   1.3357093123E+02   1.2500000000E+02  0.  0
</event>
<event>
 4   0  0.3991300E-04  0.5637152E+03  0.7818609E-02  0.9983683E-01
       21   -1    0    0  502  501   0.0000000000E+00   0.0000000000E+00   4.5872114121E+02   4.5872114121E+02   0.0000000000E+00  0.  1
       21   -1    0    0  501  502   0.0000000000E+00   0.0000000000E+00  -1.7318521076E+02   1.7318521076E+02   0.0000000000E+00  0. -1
       25    1    1    2    0    0   2.4410992457E+02  -6.5028939550E+01   1.4215473812E+02   3.1567608054E+02   1.2500000000E+02  0.  0
       25    1    1    2    0    0  -2.4410992457E+02   6.5028939550E+01   1.4338119233E+02   3.1623027143E+02   1.2500000000E+02  0.  0
</event>
<event>
 4   0  0.3991300E-04  0.4973360E+03  0.7818609E-02  0.1014477E+00
       21   -1    0    0  502  501   0.0000000000E+00   0.0000000000E+00   7.2825144774E+02   7.2825144774E+02   0.0000000000E+00  0.  1
       21   -1    0    0  501  502   0.0000000000E+00   0.0000000000E+00  -8.4909933955E+01   8.4909933955E+01   0.0000000000E+00  0.  1
       25    1    1    2    0    0   5.1023240998E+01  -2.0737316419E+02   3.6184677529E+02   4.3836638686E+02   1.2500000000E+02  0.  0
       25    1    1    2    0    0  -5.1023240998E+01   2.0737316419E+02   2.8149473850E+02   3.7479499483E+02   1.2500000000E+02  0.  0
</event>
<event>
 4   0  0.3991300E-04  0.6687282E+03  0.7818609E-02  0.9772258E-01
       21   -1    0    0  502  501   0.0000000000E+00   0.0000000000E+00   2.7204865350E+02   2.7204865350E+02   0.0000000000E+00  0.  1
       21   -1    0    0  501  502   0.0000000000E+00   0.0000000000E+00  -4.1095349934E+02   4.1095349934E+02   0.0000000000E+00  0.  1
       25    1    1    2    0    0   2.3024477106E+02   1.6146402325E+02  -2.0297569114E+02   3.6865623092E+02   1.2500000000E+02  0.  0
       25    1    1    2    0    0  -2.3024477106E+02  -1.6146402325E+02   6.4070845293E+01   3.1434592191E+02   1.2500000000E+02  0.  0
</event>
<event>
 4   0  0.3991300E-04  0.3868873E+03  0.7818609E-02  0.1048417E+00
       21   -1    0    0  502  501   0.0000000000E+00   0.0000000000E+00   3.4534290600E+01   3.4534290600E+01   0.0000000000E+00  0. -1
       21   -1    0    0  501  502   0.0000000000E+00   0.0000000000E+00  -1.0835737153E+03   1.0835737153E+03   0.0000000000E+00  0. -1
       25    1    1    2    0    0  -4.2463373502E+01  -6.0687266484E+01  -8.9359742124E+02   9.0533277509E+02   1.2500000000E+02  0.  0
       25    1    1    2    0    0   4.2463373502E+01   6.0687266484E+01  -1.5544200342E+02   2.1277523077E+02   1.2500000000E+02  0.  0
</event>
<event>
 4   0  0.3991300E-04  0.4423506E+03  0.7818609E-02  0.1030028E+00
       21   -1    0    0  502  501   0.0000000000E+00   0.0000000000E+00   2.3097835280E+02   2.3097835280E+02   0.0000000000E+00  0. -1
       21   -1    0    0  501  502   0.0000000000E+00   0.0000000000E+00  -2.1178827061E+02   2.1178827061E+02   0.0000000000E+00  0. -1
       25    1    1    2    0    0  -3.6869808383E+01  -1.0452478354E+02  -1.3548504433E+02   2.1509535183E+02   1.2500000000E+02  0.  0
       25    1    1    2    0    0   3.6869808383E+01   1.0452478354E+02   1.5467512651E+02   2.2767127158E+02   1.2500000000E+02  0.  0
</event>
<event>
 4   0  0.3991300E-04  0.5753173E+03  0.7818609E-02  0.9957981E-01
       21   -1    0    0  502  501   0.0000000000E+00   0.0000000000E+00   2.1929638618E+01   2.1929638618E+01   0.0000000000E+00  0. -1
       21   -1    0    0  501  502   0.0000000000E+00   0.0000000000E+00  -3.7733183237E+03   3.7733183237E+03   0.0000000000E+00  0. -1
       25    1    1    2    0    0   1.3144350274E+02   1.8538165589E+02  -1.0549635910E+03   1.0863778951E+03   1.2500000000E+02  0.  0
       25    1    1    2    0    0  -1.3144350274E+02  -1.8538165589E+02  -2.6964250941E+03   2.7088700672E+03   1.2500000000E+02  0.  0
</event>
<event>
 4   0  0.3991300E-04  0.4022630E+03  0.7818609E-02  0.1042999E+00
       21   -1    0    0  502  501   0.0000000000E+00   0.0000000000E+00   5.3756209329E+02   5.3756209329E+02   0.0000000000E+00  0. -1
       21   -1    0    0  501  502   0.0000000000E+00   0.0000000000E+00  -7.5254337188E+01   7.5254337188E+01   0.0000000000E+00  0. -1
       25    1    1    2    0    0  -6.5257056913E+00  -3.5015214586E+01   4.6498917768E+02   4.8281319933E+02   1.2500000000E+02  0.  0
       25    1    1    2    0    0   6.5257056913E+00   3.5015214586E+01  -2.6814215792E+00   1.3000323115E+02   1.2500000000E+02  0.  0
</event>
<event>
 4   0  0.3991300E-04  0.4036988E+03  0.7818609E-02  0.1042506E+00
       21   -1    0    0  502  501   0.0000000000E+00   0.0000000000E+00   8.7704060392E+02   8.7704060392E+02   0.0000000000E+00  0. -1
       21   -1    0    0  501  502   0.0000000000E+00   0.0000000000E+00  -4.6455299827E+01   4.6455299827E+01   0.0000000000E+00  0. -1
       25    1    1    2    0    0  -1.2226937471E+02   1.0072059437E+02   4.2644005174E+02   4.7177383972E+02   1.2500000000E+02  0.  0
       25    1    1    2    0    0   1.2226937471E+02  -1.0072059437E+02   4.0414525235E+02   4.5172206402E+02   1.2500000000E+02  0.  0
</event>
<event>
 4   0  0.3991300E-04  0.3699134E+03  0.7818609E-02  0.1054726E+00
       21   -1    0    0  502  501   0.0000000000E+00   0.0000000000E+00   2.7979866939E+00   2.7979866939E+00   0.0000000000E+00  0. -1
       21   -1    0    0  501  502   0.0000000000E+00   0.0000000000E+00  -1.2226282549E+04   1.2226282549E+04   0.0000000000E+00  0. -1
       25    1    1    2    0    0  -1.3810117052E+01   1.3263083243E+02  -7.0481549246E+03   7.0505244129E+03   1.2500000000E+02  0.  0
       25    1    1    2    0    0   1.3810117052E+01  -1.3263083243E+02  -5.1753296373E+03   5.1785561223E+03   1.2500000000E+02  0.  0
</event>
<event>
 4   0  0.3991300E-04  0.3806693E+03  0.7818609E-02  0.1050687E+00
       21   -1    0    0  502  501   0.0000000000E+00   0.0000000000E+00   1.8910301031E+02   1.8910301031E+02   0.0000000000E+00  0.  1
       21   -1    0    0  501  502   0.0000000000E+00   0.0000000000E+00  -1.9157428087E+02   1.9157428087E+02   0.0000000000E+00  0.  1
       25    1    1    2    0    0  -1.9045245389E+01  -1.0337708195E+02   9.6504496528E+01   1.8970413884E+02   1.2500000000E+02  0.  0
       25    1    1    2    0    0   1.9045245389E+01   1.0337708195E+02  -9.8975767088E+01   1.9097315234E+02   1.2500000000E+02  0.  0
</event>
<event>
 4   0  0.3991300E-04  0.5265456E+03  0.7818609E-02  0.1007073E+00
       21   -1    0    0  502  501   0.0000000000E+00   0.0000000000E+00   1.9463597535E+02   1.9463597535E+02   0.0000000000E+00  0.  1
       21   -1    0    0  501  502   0.0000000000E+00   0.0000000000E+00  -3.5611384310E+02   3.5611384310E+02   0.0000000000E+00  0.  1
       25    1    1    2    0    0   2.0017727998E+02   1.1122840588E+02  -4.3834440609E+01   2.6455464441E+02   1.2500000000E+02  0.  0
       25    1    1    2    0    0  -2.0017727998E+02  -1.1122840588E+02  -1.1764342714E+02   2.8619517404E+02   1.2500000000E+02  0.  0
</event>
<event>
 4   0  0.3991300E-04  0.7427957E+03  0.7818609E-02  0.9646721E-01
       21   -1    0    0  502  501   0.0000000000E+00   0.0000000000E+00   4.1495986368E+02   4.1495986368E+02   0.0000000000E+00  0. -1
       21   -1    0    0  501  502   0.0000000000E+00   0.0000000000E+00  -3.3240889348E+02   3.3240889348E+02   0.0000000000E+00  0. -1
       25    1    1    2    0    0  -3.7686492485E+01   6.7709128865E+01  -3.0186160871E+02   3.3578300830E+02   1.2500000000E+02  0.  0
       25    1    1    2    0    0   3.7686492485E+01  -6.7709128865E+01   3.8441257891E+02   4.1158574887E+02   1.2500000000E+02  0.  0
</event>
<event>
 4   0  0.3991300E-04  0.5446909E+03  0.7818609E-02  0.1002730E+00
       21   -1    0    0  502  501   0.0000000000E+00   0.0000000000E+00   5.3799355005E+01   5.3799355005E+01   0.0000000000E+00  0.  1
       21   -1    0    0  501  502   0.0000000000E+00   0.0000000000E+00  -1.3786791761E+03   1.3786791761E+03   0.0000000000E+00  0.  1
       25    1    1    2    0    0   1.0012383739E+02   1.6114798961E+02  -1.0573933078E+03   1.0815262663E+03   1.2500000000E+02  0.  0
       25    1    1    2    0    0  -1.0012383739E+02  -1.6114798961E+02  -2.6748651336E+02   3.5095226484E+02   1.2500000000E+02  0.  0
</event>
<event>
 4   0  0.3991300E-04  0.8766945E+03  0.7818609E-02  0.9455193E-01
       21   -1    0    0  502  501   0.0000000000E+00   0.0000000000E+00   9.3999708233E+01   9.3999708233E+01   0.0000000000E+00  0.  1
       21   -1    0    0  501  502   0.0000000000E+00   0.0000000000E+00  -2.0441373552E+03   2.0441373552E+03   0.0000000000E+00  0.  1
       25    1    1    2    0    0  -1.9408011693E+02   1.4056431841E+02  -1.3340376122E+02   3.0140833251E+02   1.2500000000E+02  0.  0
       25    1    1    2    0    0   1.9408011693E+02  -1.4056431841E+02  -1.8167338857E+03   1.8367287309E+03   1.2500000000E+02  0.  0
</event>
<event>
 4   0  0.3991300E-04  0.6531809E+03  0.7818609E-02  0.9800829E-01
       21   -1    0    0  502  501   0.0000000000E+00   0.0000000000E+00   5.2661268049E+02   5.2661268049E+02   0.0000000000E+00  0.  1
       21   -1    0    0  501  502   0.0000000000E+00   0.0000000000E+00  -2.0254225345E+02   2.0254225345E+02   0.0000000000E+00  0.  1
       25    1    1    2    0    0  -1.1399811258E+02  -2.2533351372E+02  -2.2293730327E+01   2.8265309566E+02   1.2500000000E+02  0.  0
       25    1    1    2    0    0   1.1399811258E+02   2.2533351372E+02   3.4636415737E+02   4.4650183828E+02   1.2500000000E+02  0.  0
</event>
<event>
 4   0  0.3991300E-04  0.3795799E+03  0.7818609E-02  0.1051089E+00
       21   -1    0    0  502  501   0.0000000000E+00   0.0000000000E+00   1.1526043991E+01   1.1526043991E+01   0.0000000000E+00  0. -1
       21   -1    0    0  501  502   0.0000000000E+00   0.0000000000E+00  -3.1251157548E+03   3.1251157548E+03   0.0000000000E+00  0. -1
       25    1    1    2    0    0   1.1391700411E+02  -6.5779399366E+00  -2.2664361527E+03   2.2727468375E+03   1.2500000000E+02  0.  0
       25    1    1    2    0    0  -1.1391700411E+02   6.5779399366E+00  -8.4715355806E+02   8.6389496124E+02   1.2500000000E+02  0.  0
</event>
<event>
 4   0  0.3991300E-04  0.3996299E+03  0.7818609E-02  0.1043908E+00
       21   -1    0    0  502  501   0.0000000000E+00   0.0000000000E+00   1.0713765147E+02   1.0713765147E+02   0.0000000000E+00  0. -1
       21   -1    0    0  501  502   0.0000000000E+00   0.0000000000E+00  -3.7266090285E+02   3.7266090285E+02   0.0000000000E+00  0. -1
       25    1    1    2    0    0  -1.4744480716E+02   5.0575705615E+01  -1.3063388346E+02   2.3872177250E+02   1.2500000000E+02  0.  0
       25    1    1    2    0    0   1.4744480716E+02  -5.0575705615E+01  -1.3488936792E+02   2.4107678182E+02   1.2500000000E+02  0.  0
</event>
<event>
 4   0  0.3991300E-04  0.4342865E+03  0.7818609E-02  0.1032514E+00
       21   -1    0    0  502  501   0.0000000000E+00   0.0000000000E+00   2.6684984636E+02   2.6684984636E+02   0.0000000000E+00  0.  1
       21   -1    0    0  501  502   0.0000000000E+00   0.0000000000E+00  -1.7669561509E+02   1.7669561509E+02   0.0000000000E+00  0.  1
       25    1    1    2    0    0   7.7549865672E+01  -5.5534229774E+01  -1.0787611502E+02   1.9068373956E+02   1.2500000000E+02  0.  0
       25    1    1    2    0    0  -7.7549865672E+01   5.5534229774E+01   1.9803034630E+02   2.5286172189E+02   1.2500000000E+02  0.  0
</event>
<event>
 4   0  0.3991300E-04  0.3800048E+03  0.7818609E-02  0.1050932E+00
       21   -1    0    0  502  501   0.0000000000E+00   0.0000000000E+00   9.5921127125E+02   9.5921127125E+02   0.0000000000E+00  0.  1
       21   -1    0    0  501  502   0.0000000000E+00   0.0000000000E+00  -3.7636040519E+01   3.7636040519E+01   0.0000000000E+00  0.  1
       25    1    1    2    0    0   9.2220431388E+01  -5.8959341995E+01   2.1900567840E+02   2.7489870706E+02   1.2500000000E+02  0.  0
       25    1    1    2    0    0  -9.2220431388E+01   5.8959341995E+01   7.0256955233E+02   7.2194860470E+02   1.2500000000E+02  0.  0
</event>
<event>
 4   0  0.3991300E-04  0.5013739E+03  0.7818609E-02  0.1013421E+00
       21   -1    0    0  502  501   0.0000000000E+00   0.0000000000E+00   3.3474746639E+03   3.3474746639E+03   0.0000000000E+00  0. -1
       21   -1    0    0  501  502   0.0000000000E+00   0.0000000000E+00  -1.8773538614E+01   1.8773538614E+01   0.0000000000E+00  0. -1
       25    1    1    2    0    0   6.6276985825E+01  -1.3033442387E+02   2.7436061871E+03   2.7503417262E+03   1.2500000000E+02  0.  0
       25    1    1    2    0    0  -6.6276985825E+01   1.3033442387E+02   5.8509493823E+02   6.1590647637E+02   1.2500000000E+02  0.  0
</event>
<event>
 4   0  0.3991300E-04  0.5044802E+03  0.7818609E-02  0.1012616E+00
       21   -1    0    0  502  501   0.0000000000E+00   0.0000000000E+00   6.9649012635E+01   6.9649012635E+01   0.0000000000E+00  0.  1
       21   -1    0    0  501  502   0.0000000000E+00   0.0000000000E+00  -9.1350989131E+02   9.1350989131E+02   0.0000000000E+00  0.  1
       25    1    1    2    0    0  -1.3134857971E+02   2.2255372784E+01  -7.6089858675E+02   7.8252118843E+02   1.2500000000E+02  0.  0
       25    1    1    2    0    0   1.3134857971E+02  -2.2255372784E+01  -8.2962291923E+01   2.0063771552E+02   1.2500000000E+02  0.  0
</event>
<event>
 4   0  0.3991300E-04  0.3156761E+03  0.7818609E-02  0.1077657E+00
       21   -1    0    0  502  501   0.0000000000E+00   0.0000000000E+00   5.9273306890E+01   5.9273306890E+01   0.0000000000E+00  0.  1
       21   -1    0    0  501  502   0.0000000000E+00   0.0000000000E+00  -4.2030463695E+02   4.2030463695E+02   0.0000000000E+00  0.  1
       25    1    1    2    0    0   8.1871509761E+01   7.8921277199E-02  -1.0327624170E+02   1.8164232007E+02   1.2500000000E+02  0.  0
       25    1    1    2    0    0  -8.1871509761E+01  -7.8921277199E-02  -2.5775508836E+02   2.9793562378E+02   1.2500000000E+02  0.  0
</event>
<event>
 4   0  0.3991300E-04  0.5173084E+03  0.7818609E-02  0.1009357E+00
       21   -1    0    0  502  501   0.0000000000E+00   0.0000000000E+00   4.3022923131E+02   4.3022923131E+02   0.0000000000E+00  0.  1
       21   -1    0    0  501  502   0.0000000000E+00   0.0000000000E+00  -1.5550311304E+02   1.5550311304E+02   0.0000000000E+00  0.  1
       25    1    1    2    0    0   1.5912272412E+02  -1.2243512192E+02   1.8790169951E+01   2.3725191442E+02   1.2500000000E+02  0.  0
       25    1    1    2    0    0  -1.5912272412E+02   1.2243512192E+02   2.5593594831E+02   3.4848042994E+02   1.2500000000E+02  0.  0
</event>
<event>
 4   0  0.3991300E-04  0.4450910E+03  0.7818609E-02  0.1029196E+00
       21   -1    0    0  502  501   0.0000000000E+00   0.0000000000E+00   2.9537710575E+01   2.9537710575E+01   0.0000000000E+00  0.  1
       21   -1    0    0  501  502   0.0000000000E+00   0.0000000000E+00  -1.6767212741E+03   1.6767212741E+03   0.0000000000E+00  0.  1
       25    1    1    2    0    0   4.7317761108E+01  -1.6135188470E+02  -5.3599948031E+02   5.7549443447E+02   1.2500000000E+02  0.  0
       25    1    1    2    0    0  -4.7317761108E+01   1.6135188470E+02  -1.1111840832E+03   1.1307645502E+03   1.2500000000E+02  0.  0
</event>
<event>
 4   0  0.3991300E-04  0.3874077E+03  0.7818609E-02  0.1048229E+00
       21   -1    0    0  502  501   0.0000000000E+00   0.0000000000E+00   1.0864018759E+03   1.0864018759E+03   0.0000000000E+00  0.  1
       21   -1    0    0  501  502   0.0000000000E+00   0.0000000000E+00  -3.4537113278E+01   3.4537113278E+01   0.0000000000E+00  0.  1
       25    1    1    2    0    0   5.0941728411E+00   1.3509070971E+02   3.5182706553E+02   3.9709285374E+02   1.2500000000E+02  0.  0
       25    1    1    2    0    0  -5.0941728411E+00  -1.3509070971E+02   7.0003769704E+02   7.2384613540E+02   1.2500000000E+02  0.  0
</event>
<event>
 4   0  0.3991300E-04  0.4174853E+03  0.7818609E-02  0.1037888E+00
       21   -1    0    0  502  501   0.0000000000E+00   0.0000000000E+00   4.9788111203E+01   4.9788111203E+01   0.0000000000E+00  0.  1
       21   -1    0    0  501  502   0.0000000000E+00   0.0000000000E+00  -8.7517887923E+02   8.7517887923E+02   0.0000000000E+00  0.  1
       25    1    1    2    0    0   1.0463430392E+01   1.0046131303E+02  -1.1754598647E+02   1.9910805540E+02   1.2500000000E+02  0.  0
       25    1    1    2    0    0  -1.0463430392E+01  -1.0046131303E+02  -7.0784478155E+02   7.2585893503E+02   1.2500000000E+02  0.  0
</event>
<event>
 4   0  0.3991300E-04  0.4835486E+03  0.7818609E-02  0.1018164E+00
       21   -1    0    0  502  501   0.0000000000E+00   0.0000000000E+00   3.4860611426E+03   3.4860611426E+03   0.0000000000E+00  0.  1
       21   -1    0    0  501  502   0.0000000000E+00   0.0000000000E+00  -1.6768152837E+01   1.6768152837E+01   0.0000000000E+00  0.  1
       25    1    1    2    0    0  -1.9025795820E+02  -3.3642717166E+01   2.2718707217E+03   2.2834954563E+03   1.2500000000E+02  0.  0
       25    1    1    2    0    0   1.9025795820E+02   3.3642717166E+01   1.1974222681E+03   1.2193338392E+03   1.2500000000E+02  0.  0
</event>
<event>
 4   0  0.3991300E-04  0.3560872E+03  0.7818609E-02  0.1060144E+00
       21   -1    0    0  502  501   0.0000000000E+00   0.0000000000E+00   2.0150279914E+03   2.0150279914E+03   0.0000000000E+00  0.  1
       21   -1    0    0  501  502   0.0000000000E+00   0.0000000000E+00  -1.5731554554E+01   1.5731554554E+01   0.0000000000E+00  0.  1
       25    1    1    2    0    0  -1.2181395291E+02   3.4382068898E+01   1.0414620164E+03   1.0565457384E+03   1.2500000000E+02  0.  0
       25    1    1    2    0    0   1.2181395291E+02  -3.4382068898E+01   9.5783442050E+02   9.7421380758E+02   1.2500000000E+02  0.  0
</event>
<event>
 4   0  0.3991300E-04  0.6421806E+03  0.7818609E-02  0.9821563E-01
       21   -1    0    0  502  501   0.0000000000E+00   0.0000000000E+00   1.4184665838E+02   1.4184665838E+02   0.0000000000E+00  0. -1
       21   -1    0    0  501  502   0.0000000000E+00   0.0000000000E+00  -7.2683409502E+02   7.2683409502E+02   0.0000000000E+00  0. -1
       25    1    1    2    0    0   2.7071865762E+02   1.0651433316E+02  -2.2040467365E+02   3.8579413542E+02   1.2500000000E+02  0.  0
       25    1    1    2    0    0  -2.7071865762E+02  -1.0651433316E+02  -3.6458276299E+02   4.8288661798E+02   1.2500000000E+02  0.  0
</event>
<event>
 4   0  0.3991300E-04  0.3976992E+03  0.7818609E-02  0.1044579E+00
       21   -1    0    0  502  501   0.0000000000E+00   0.0000000000E+00   1.7297721003E+02   1.7297721003E+02   0.0000000000E+00  0. -1
       21   -1    0    0  501  502   0.0000000000E+00   0.0000000000E+00  -2.2859174075E+02   2.2859174075E+02   0.0000000000E+00  0. -1
       25    1    1    2    0    0  -6.7834472296E+01  -4.5031537112E+01  -1.6056590855E+02   2.1917063206E+02   1.2500000000E+02  0.  0
       25    1    1    2    0    0   6.7834472296E+01   4.5031537112E+01   1.0495137783E+02   1.8239831873E+02   1.2500000000E+02  0.  0
</event>
<event>
 4   0  0.3991300E-04  0.3106513E+03  0.7818609E-02  0.1080034E+00
       21   -1    0    0  502  501   0.0000000000E+00   0.0000000000E+00   9.2666292318E+01   9.2666292318E+01   0.0000000000E+00  0.  1
       21   -1    0    0  501  502   0.0000000000E+00   0.0000000000E+00  -2.6035415365E+02   2.6035415365E+02   0.0000000000E+00  0.  1
       25    1    1    2    0    0   6.3258477440E+01  -2.1743616503E+01  -1.1733546681E+01   1.4225714725E+02   1.2500000000E+02  0.  0
       25    1    1    2    0    0  -6.3258477440E+01   2.1743616503E+01  -1.5595431465E+02   2.1076329871E+02   1.2500000000E+02  0.  0
</event>
<event>
 4   0  0.3991300E-04  0.5030044E+03  0.7818609E-02  0.1012998E+00
       21   -1    0    0  502  501   0.0000000000E+00   0.0000000000E+00   1.3701383538E+02   1.3701383538E+02   0.0000000000E+00  0.  1
       21   -1    0    0  501  502   0.0000000000E+00   0.0000000000E+00  -4.6165679585E+02   4.6165679585E+02   0.0000000000E+00  0.  1
       25    1    1    2    0    0  -9.4742851645E+01  -1.0281418372E+02   3.7124614897E+01   1.9118106952E+02   1.2500000000E+02  0.  0
       25    1    1    2    0    0   9.4742851645E+01   1.0281418372E+02  -3.6176757537E+02   4.0748956170E+02   1.2500000000E+02  0.  0
</event>
<event>
 4   0  0.3991300E-04  0.6881942E+03  0.7818609E-02  0.9737637E-01
       21   -1    0    0  502  501   0.0000000000E+00   0.0000000000E+00   1.0176934471E+02   1.0176934471E+02   0.0000000000E+00  0.  1
       21   -1    0    0  501  502   0.0000000000E+00   0.0000000000E+00  -1.1634429899E+03   1.1634429899E+03   0.0000000000E+00  0.  1
       25    1    1    2    0    0   2.8706577651E+01   1.7563252031E+02  -4.0597099110E+01   2.2123285074E+02   1.2500000000E+02  0.  0
       25    1    1    2    0    0  -2.8706577651E+01  -1.7563252031E+02  -1.0210765461E+03   1.0439794839E+03   1.2500000000E+02  0.  0
</event>
<event>
 4   0  0.3991300E-04  0.5693956E+03  0.7818609E-02  0.9971017E-01
       21   -1    0    0  502  501   0.0000000000E+00   0.0000000000E+00   9.3635527402E+02   9.3635527402E+02   0.0000000000E+00  0.  1
       21   -1    0    0  501  502   0.0000000000E+00   0.0000000000E+00  -8.6562069035E+01   8.6562069035E+01   0.0000000000E+00  0.  1
       25    1    1    2    0    0   8.9403635930E+01  -2.1149189635E+02   2.2239375865E+02   3.4322851896E+02   1.2500000000E+02  0.  0
       25    1    1    2    0    0  -8.9403635930E+01   2.1149189635E+02   6.2739944633E+02   6.7968882409E+02   1.2500000000E+02  0.  0
</event>
<event>
 4   0  0.3991300E-04  0.4193871E+03  0.7818609E-02  0.1037266E+00
       21   -1    0    0  502  501   0.0000000000E+00   0.0000000000E+00   5.1469101571E+01   5.1469101571E+01   0.0000000000E+00  0. -1
       21   -1    0    0  501  502   0.0000000000E+00   0.0000000000E+00  -8.5432595955E+02   8.5432595955E+02   0.0000000000E+00  0. -1
       25    1    1    2    0    0  -3.3253350047E+01   1.1024079762E+02  -1.3613620620E+02   2.1775418569E+02   1.2500000000E+02  0.  0
       25    1    1    2    0    0   3.3253350047E+01  -1.1024079762E+02  -6.6672065178E+02   6.8804087543E+02   1.2500000000E+02  0.  0
</event>
<event>
 4   0  0.3991300E-04  0.9849359E+03  0.7818609E-02  0.9325223E-01
       21   -1    0    0  502  501   0.0000000000E+00   0.0000000000E+00   2.7671615976E+01   2.7671615976E+01   0.0000000000E+00  0. -1
       21   -1    0    0  501  502   0.0000000000E+00   0.0000000000E+00  -8.7643839434E+03   8.7643839434E+03   0.0000000000E+00  0. -1
       25    1    1    2    0    0  -2.6607743885E+01  -3.5285239009E+02  -1.5218315539E+03   1.5674211494E+03   1.2500000000E+02  0.  0
       25    1    1    2    0    0   2.6607743885E+01   3.5285239009E+02  -7.2148807735E+03   7.2246344099E+03   1.2500000000E+02  0.  0
</event>
<event>
 4   0  0.3991300E-04  0.3739345E+03  0.7818609E-02  0.1053199E+00
       21   -1    0    0  502  501   0.0000000000E+00   0.0000000000E+00   1.6666238517E+01   1.6666238517E+01   0.0000000000E+00  0.  1
       21   -1    0    0  501  502   0.0000000000E+00   0.0000000000E+00  -2.0974592248E+03   2.0974592248E+03   0.0000000000E+00  0.  1
       25    1    1    2    0    0  -2.8803643006E+01   7.8797306398E+01  -4.1354344969E+02   4.4009300168E+02   1.2500000000E+02  0.  0
       25    1    1    2    0    0   2.8803643006E+01  -7.8797306398E+01  -1.6672495366E+03   1.6740324616E+03   1.2500000000E+02  0.  0
</event>
<event>
 4   0  0.3991300E-04  0.4987019E+03  0.7818609E-02  0.1014118E+00
       21   -1    0    0  502  501   0.0000000000E+00   0.0000000000E+00   1.9235870381E+01   1.9235870381E+01   0.0000000000E+00  0.  1
       21   -1    0    0  501  502   0.0000000000E+00   0.0000000000E+00  -3.2322888596E+03   3.2322888596E+03   0.0000000000E+00  0.  1
       25    1    1    2    0    0   7.5826098227E+01  -1.8717065262E+02  -2.1017203196E+03   2.1150971023E+03   1.2500000000E+02  0.  0
       25    1    1    2    0    0  -7.5826098227E+01   1.8717065262E+02  -1.1113326696E+03   1.1364276276E+03   1.2500000000E+02  0.  0
</event>
<event>
 4   0  0.3991300E-04  0.3816882E+03  0.7818609E-02  0.1050312E+00
       21   -1    0    0  502  501   0.0000000000E+00   0.0000000000E+00   7.1804192341E+01   7.1804192341E+01   0.0000000000E+00  0.  1
       21   -1    0    0  501  502   0.0000000000E+00   0.0000000000E+00  -5.0723332846E+02   5.0723332846E+02   0.0000000000E+00  0.  1
       25    1    1    2    0    0  -3.4736976174E+01  -1.0728473862E+02  -8.1350983865E+01   1.8697501232E+02   1.2500000000E+02  0.  0
       25    1    1    2    0    0   3.4736976174E+01   1.0728473862E+02  -3.5407815225E+02   3.9206250848E+02   1.2500000000E+02  0.  0
</event>
<event>
 4   0  0.3991300E-04  0.4393108E+03  0.7818609E-02  0.1030958E+00
       21   -1    0    0  502  501   0.0000000000E+00   0.0000000000E+00   4.5458279492E+01   4.5458279492E+01   0.0000000000E+00  0. -1
       21   -1    0    0  501  502   0.0000000000E+00   0.0000000000E+00  -1.0613795878E+03   1.0613795878E+03   0.0000000000E+00  0. -1
       25    1    1    2    0    0   1.5920749345E+02   8.3948084163E+01  -5.4610265655E+02   5.8842792108E+02   1.2500000000E+02  0.  0
       25    1    1    2    0    0  -1.5920749345E+02  -8.3948084163E+01  -4.6981865179E+02   5.1840994625E+02   1.2500000000E+02  0.  0
</event>
<event>
 4   0  0.3991300E-04  0.3851990E+03  0.7818609E-02  0.1049029E+00
       21   -1    0    0  502  501   0.0000000000E+00   0.0000000000E+00   4.8592629968E+01   4.8592629968E+01   0.0000000000E+00  0.  1
       21   -1    0    0  501  502   0.0000000000E+00   0.0000000000E+00  -7.6337845969E+02   7.6337845969E+02   0.0000000000E+00  0.  1
       25    1    1    2    0    0  -6.6217703491E+01   1.2109904507E+02  -4.6108497827E+02   4.9726664895E+02   1.2500000000E+02  0.  0
       25    1    1    2    0    0   6.6217703491E+01  -1.2109904507E+02  -2.5370085145E+02   3.1470444071E+02   1.2500000000E+02  0.  0
</event>
<event>
 4   0  0.3991300E-04  0.4057981E+03  0.7818609E-02  0.1041790E+00
       21   -1    0    0  502  501   0.0000000000E+00   0.0000000000E+00   2.3861671344E+00   2.3861671344E+00   0.0000000000E+00  0.  1
       21   -1    0    0  501  502   0.0000000000E+00   0.0000000000E+00  -1.7252780843E+04   1.7252780843E+04   0.0000000000E+00  0.  1
       25    1    1    2    0    0  -2.2229517005E+00  -1.1257973530E+02  -3.8024425145E+03   3.8061625313E+03   1.2500000000E+02  0.  0
       25    1    1    2    0    0   2.2229517005E+00   1.1257973530E+02  -1.3447952161E+04   1.3449004478E+04   1.2500000000E+02  0.  0
</event>
<event>
 4   0  0.3991300E-04  0.4503773E+03  0.7818609E-02  0.1027610E+00
       21   -1    0    0  502  501   0.0000000000E+00   0.0000000000E+00   1.9371965036E+02   1.9371965036E+02   0.0000000000E+00  0.  1
       21   -1    0    0  501  502   0.0000000000E+00   0.0000000000E+00  -2.6176971617E+02   2.6176971617E+02   0.0000000000E+00  0.  1
       25    1    1    2    0    0   8.5159552107E+01   6.7827252157E+01   1.2012632928E+02   2.0471448517E+02   1.2500000000E+02  0.  0
       25    1    1    2    0    0  -8.5159552107E+01  -6.7827252157E+01  -1.8817639510E+02   2.5077488136E+02   1.2500000000E+02  0.  0
</event>
<event>
 4   0  0.3991300E-04  0.1228917E+04  0.7818609E-02  0.9087915E-01
       21   -1    0    0  502  501   0.0000000000E+00   0.0000000000E+00   2.2020912982E+02   2.2020912982E+02   0.0000000000E+00  0.  1
       21   -1    0    0  501  502   0.0000000000E+00   0.0000000000E+00  -1.7145485535E+03   1.7145485535E+03   0.0000000000E+00  0.  1
       25    1    1    2    0    0   4.2571808482E+02   3.8955894891E+02  -1.0150061551E+03   1.1742463785E+03   1.2500000000E+02  0.  0
       25    1    1    2    0    0  -4.2571808482E+02  -3.8955894891E+02  -4.7933326850E+02   7.6051130479E+02   1.2500000000E+02  0.  0
</event>
<event>
 4   0  0.3991300E-04  0.5181159E+03  0.7818609E-02  0.1009156E+00
       21   -1    0    0  502  501   0.0000000000E+00   0.0000000000E+00   3.6933634481E+02   3.6933634481E+02   0.0000000000E+00  0.  1
       21   -1    0    0  501  502   0.0000000000E+00   0.0000000000E+00  -1.8170707076E+02   1.8170707076E+02   0.0000000000E+00  0.  1
       25    1    1    2    0    0   1.7104501665E+02  -1.4498449917E+02   5.6832325088E+01   2.6292929828E+02   1.2500000000E+02  0.  0
       25    1    1    2    0    0  -1.7104501665E+02   1.4498449917E+02   1.3079694896E+02   2.8811411728E+02   1.2500000000E+02  0.  0
</event>
<event>
 4   0  0.3991300E-04  0.5493467E+03  0.7818609E-02  0.1001645E+00
       21   -1    0    0  502  501   0.0000000000E+00   0.0000000000E+00   6.4763158186E+01   6.4763158186E+01   0.0000000000E+00  0. -1
       21   -1    0    0  501  502   0.0000000000E+00   0.0000000000E+00  -1.1649440784E+03   1.1649440784E+03   0.0000000000E+00  0. -1
       25    1    1    2    0    0   1.7584056302E+02  -1.0750711707E+02  -2.5529929442E+02   3.5111310650E+02   1.2500000000E+02  0.  0
       25    1    1    2    0    0  -1.7584056302E+02   1.0750711707E+02  -8.4488162577E+02   8.7859413007E+02   1.2500000000E+02  0.  0
</event>
<event>
 4   0  0.3991300E-04  0.4321083E+03  0.7818609E-02  0.1033196E+00
       21   -1    0    0  502  501   0.0000000000E+00   0.0000000000E+00   1.6615076489E+02   1.6615076489E+02   0.0000000000E+00  0.  1
       21   -1    0    0  501  502   0.0000000000E+00   0.0000000000E+00  -2.8094604167E+02   2.8094604167E+02   0.0000000000E+00  0.  1
       25    1    1    2    0    0  -1.5158208999E+02  -8.2770062000E+01  -9.3632168172E+01   2.3285187585E+02   1.2500000000E+02  0.  0
       25    1    1    2    0    0   1.5158208999E+02   8.2770062000E+01  -2.1163108611E+01   2.1424493071E+02   1.2500000000E+02  0.  0
</event>
<event>
 4   0  0.3991300E-04  0.5041264E+03  0.7818609E-02  0.1012707E+00
       21   -1    0    0  502  501   0.0000000000E+00   0.0000000000E+00   1.9572146098E+03   1.9572146098E+03   0.0000000000E+00  0. -1
       21   -1    0    0  501  502   0.0000000000E+00   0.0000000000E+00  -3.2462385966E+01   3.2462385966E+01   0.0000000000E+00  0. -1
       25    1    1    2    0    0   5.1060342715E+01  -1.7650400416E+02   4.9289093832E+02   5.4067300576E+02   1.2500000000E+02  0.  0
       25    1    1    2    0    0  -5.1060342715E+01   1.7650400416E+02   1.4318612855E+03   1.4490039900E+03   1.2500000000E+02  0.  0
</event>
<event>
 4   0  0.3991300E-04  0.5865773E+03  0.7818609E-02  0.9933652E-01
       21   -1    0    0  502  501   0.0000000000E+00   0.0000000000E+00   1.1945174774E+03   1.1945174774E+03   0.0000000000E+00  0.  1
       21   -1    0    0  501  502   0.0000000000E+00   0.0000000000E+00  -7.2010855831E+01   7.2010855831E+01   0.0000000000E+00  0.  1
       25    1    1    2    0    0   2.5470275898E+02   7.4197350771E+01   5.6947057717E+02   6.4054701666E+02   1.2500000000E+02  0.  0
       25    1    1    2    0    0  -2.5470275898E+02  -7.4197350771E+01   5.5303604442E+02   6.2598131659E+02   1.2500000000E+02  0.  0
</event>
<event>
 4   0  0.3991300E-04  0.7451770E+03  0.7818609E-02  0.9642947E-01
       21   -1    0    0  502  501   0.0000000000E+00   0.0000000000E+00   7.0415664132E+02   7.0415664132E+02   0.0000000000E+00  0. -1
       21   -1    0    0  501  502   0.0000000000E+00   0.0000000000E+00  -1.9714672693E+02   1.9714672693E+02   0.0000000000E+00  0. -1
       25    1    1    2    0    0  -1.1712740412E+02   3.1173666433E+01   6.5192350862E+02   6.7477395279E+02   1.2500000000E+02  0.  0
       25    1    1    2    0    0   1.1712740412E+02  -3.1173666433E+01  -1.4491359423E+02   2.2652941546E+02   1.2500000000E+02  0.  0
</event>
<event>
 4   0  0.3991300E-04  0.4311597E+03  0.7818609E-02  0.1033494E+00
       21   -1    0    0  502  501   0.0000000000E+00   0.0000000000E+00   2.7408983096E+01   2.7408983096E+01   0.0000000000E+00  0. -1
       21   -1    0    0  501  502   0.0000000000E+00   0.0000000000E+00  -1.6955999196E+03   1.6955999196E+03   0.0000000000E+00  0. -1
       25    1    1    2    0    0   5.4044911081E+00  -1.4548630088E+02  -4.4144379283E+02   4.8134508878E+02   1.2500000000E+02  0.  0
       25    1    1    2    0    0  -5.4044911081E+00   1.4548630088E+02  -1.2267471437E+03   1.2416638139E+03   1.2500000000E+02  0.  0
</event>
<event>
 4   0  0.3991300E-04  0.3478910E+03  0.7818609E-02  0.1063484E+00
       21   -1    0    0  502  501   0.0000000000E+00   0.0000000000E+00   1.7327045018E+02   1.7327045018E+02   0.0000000000E+00  0.  1
       21   -1    0    0  501  502   0.0000000000E+00   0.0000000000E+00  -1.7462314793E+02   1.7462314793E+02   0.0000000000E+00  0.  1
       25    1    1    2    0    0  -2.5289822240E+00  -4.2426945445E+01  -1.1392732639E+02   1.7438714732E+02   1.2500000000E+02  0.  0
       25    1    1    2    0    0   2.5289822240E+00   4.2426945445E+01   1.1257462865E+02   1.7350645079E+02   1.2500000000E+02  0.  0
</event>
<event>
 4   0  0.3991300E-04  0.5319447E+03  0.7818609E-02  0.1005762E+00
       21   -1    0    0  502  501   0.0000000000E+00   0.0000000000E+00   2.5102361363E+01   2.5102361363E+01   0.0000000000E+00  0. -1
       21   -1    0    0  501  502   0.0000000000E+00   0.0000000000E+00  -2.8181127724E+03   2.8181127724E+03   0.0000000000E+00  0. -1
       25    1    1    2    0    0   2.1888241075E+02   5.5277759079E+01  -1.7408766993E+03   1.7598982421E+03   1.2500000000E+02  0.  0
       25    1    1    2    0    0  -2.1888241075E+02  -5.5277759079E+01  -1.0521337117E+03   1.0833168917E+03   1.2500000000E+02  0.  0
</event>
<event>
 4   0  0.3991300E-04  0.4400372E+03  0.7818609E-02  0.1030735E+00
       21   -1    0    0  502  501   0.0000000000E+00   0.0000000000E+00   8.5528821105E+02   8.5528821105E+02   0.0000000000E+00  0.  1
       21   -1    0    0  501  502   0.0000000000E+00   0.0000000000E+00  -5.6598678813E+01   5.6598678813E+01   0.0000000000E+00  0.  1
       25    1    1    2    0    0   1.1047749717E+02  -1.2370908820E+02   2.4885038511E+02   3.2413072988E+02   1.2500000000E+02  0.  0
       25    1    1    2    0    0  -1.1047749717E+02   1.2370908820E+02   5.4983914713E+02   5.8775615999E+02   1.2500000000E+02  0.  0
</event>
<event>
 4   0  0.3991300E-04  0.3458046E+03  0.7818609E-02  0.1064350E+00
       21   -1    0    0  502  501   0.0000000000E+00   0.0000000000E+00   3.4208720662E+02   3.4208720662E+02   0.0000000000E+00  0.  1
       21   -1    0    0  501  502   0.0000000000E+00   0.0000000000E+00  -8.7390617937E+01   8.7390617937E+01   0.0000000000E+00  0.  1
       25    1    1    2    0    0  -8.7830563065E+00  -2.3748058516E+01   2.7234011946E+02   3.0072454677E+02   1.2500000000E+02  0.  0
       25    1    1    2    0    0   8.7830563065E+00   2.3748058516E+01  -1.7643530783E+01   1.2875327778E+02   1.2500000000E+02  0.  0
</event>
<event>
 4   0  0.3991300E-04  0.5417541E+03  0.7818609E-02  0.1003421E+00
       21   -1    0    0  502  501   0.0000000000E+00   0.0000000000E+00   1.3308624775E+03   1.3308624775E+03   0.0000000000E+00  0.  1
       21   -1    0    0  501  502   0.0000000000E+00   0.0000000000E+00  -5.5132951586E+01   5.5132951586E+01   0.0000000000E+00  0.  1
       25    1    1    2    0    0   1.3732746152E+02  -1.4686633215E+02   9.7456535600E+02   1.0029113542E+03   1.2500000000E+02  0.  0
       25    1    1    2    0    0  -1.3732746152E+02   1.4686633215E+02   3.0116416987E+02   3.8308407487E+02   1.2500000000E+02  0.  0
</event>
<event>
 4   0  0.3991300E-04  0.4081419E+03  0.7818609E-02  0.1040996E+00
       21   -1    0    0  502  501   0.0000000000E+00   0.0000000000E+00   8.6204638448E+03   8.6204638448E+03   0.0000000000E+00  0.  1
       21   -1    0    0  501  502   0.0000000000E+00   0.0000000000E+00  -4.8309399289E+00   4.8309399289E+00   0.0000000000E+00  0.  1
       25    1    1    2    0    0   1.3183741930E+02   9.2133677561E+01   4.0487975266E+03   4.0539186142E+03   1.2500000000E+02  0.  0
       25    1    1    2    0    0  -1.3183741930E+02  -9.2133677561E+01   4.5668353782E+03   4.5713761704E+03   1.2500000000E+02  0.  0
</event>
<event>
 4   0  0.3991300E-04  0.5279308E+03  0.7818609E-02  0.1006735E+00
       21   -1    0    0  502  501   0.0000000000E+00   0.0000000000E+00   2.3415927840E+02   2.3415927840E+02   0.0000000000E+00  0. -1
       21   -1    0    0  501  502   0.0000000000E+00   0.0000000000E+00  -2.9756557876E+02   2.9756557876E+02   0.0000000000E+00  0. -1
       25    1    1    2    0    0   4.9754340815E+01   5.6099251762E+01   1.8994683761E+02   2.3943145490E+02   1.2500000000E+02  0.  0
       25    1    1    2    0    0  -4.9754340815E+01  -5.6099251762E+01  -2.5335313798E+02   2.9229340226E+02   1.2500000000E+02  0.  0
</event>
<event>
 4   0  0.3991300E-04  0.3726064E+03  0.7818609E-02  0.1053701E+00
       21   -1    0    0  502  501   0.0000000000E+00   0.0000000000E+00   2.7019374557E+01   2.7019374557E+01   0.0000000000E+00  0.  1
       21   -1    0    0  501  502   0.0000000000E+00   0.0000000000E+00  -1.2845926888E+03   1.2845926888E+03   0.0000000000E+00  0.  1
       25    1    1    2    0    0  -4.9116140178E+01   1.1692752474E+02  -8.2157280813E+02   8.4064934446E+02   1.2500000000E+02  0.  0
       25    1    1    2    0    0   4.9116140178E+01  -1.1692752474E+02  -4.3600050612E+02   4.7096271891E+02   1.2500000000E+02  0.  0
</event>
<event>
 4   0  0.3991300E-04  0.5107574E+03  0.7818609E-02  0.1011009E+00
       21   -1    0    0  502  501   0.0000000000E+00   0.0000000000E+00   1.0501692825E+02   1.0501692825E+02   0.0000000000E+00  0.  1
       21   -1    0    0  501  502   0.0000000000E+00   0.0000000000E+00  -6.2102636037E+02   6.2102636037E+02   0.0000000000E+00  0.  1
       25    1    1    2    0    0  -1.2072005200E+02  -1.8215933437E+02  -1.9706338472E+02   3.1970976158E+02   1.2500000000E+02  0.  0
       25    1    1    2    0    0   1.2072005200E+02   1.8215933437E+02  -3.1894604739E+02   4.0633352704E+02   1.2500000000E+02  0.  0
</event>
<event>
 4   0  0.3991300E-04  0.3795270E+03  0.7818609E-02  0.1051109E+00
       21   -1    0    0  502  501   0.0000000000E+00   0.0000000000E+00   7.8291376326E+01   7.8291376326E+01   0.0000000000E+00  0.  1
       21   -1    0    0  501  502   0.0000000000E+00   0.0000000000E+00  -4.5995087838E+02   4.5995087838E+02   0.0000000000E+00  0.  1
       25    1    1    2    0    0   8.9896591871E+01   6.6205037341E+01  -3.1704633516E+02   3.5861941224E+02   1.2500000000E+02  0.  0
       25    1    1    2    0    0  -8.9896591871E+01  -6.6205037341E+01  -6.4613166899E+01   1.7962284247E+02   1.2500000000E+02  0.  0
</event>
<event>
 4   0  0.3991300E-04  0.4999192E+03  0.7818609E-02  0.1013800E+00
       21   -1    0    0  502  501   0.0000000000E+00   0.0000000000E+00   7.6886874246E+00   7.6886874246E+00   0.0000000000E+00  0.  1
       21   -1    0    0  501  502   0.0000000000E+00   0.0000000000E+00  -8.1262002787E+03   8.1262002787E+03   0.0000000000E+00  0.  1
       25    1    1    2    0    0   1.2081161729E+02   1.4944555199E+01  -6.9714323954E+03   6.9736155206E+03   1.2500000000E+02  0.  0
       25    1    1    2    0    0  -1.2081161729E+02  -1.4944555199E+01  -1.1470791959E+03   1.1602734455E+03   1.2500000000E+02  0.  0
</event>
<event>
 4   0  0.3991300E-04  0.4950680E+03  0.7818609E-02  0.1015074E+00
       21   -1    0    0  502  501   0.0000000000E+00   0.0000000000E+00   5.9413568267E+01   5.9413568267E+01   0.0000000000E+00  0. -1
       21   -1    0    0  501  502   0.0000000000E+00   0.0000000000E+00  -1.0312976071E+03   1.0312976071E+03   0.0000000000E+00  0. -1
       25    1    1    2    0    0   8.5420175643E+01  -1.9358967459E+02  -5.5109366869E+02   6.0340931397E+02   1.2500000000E+02  0.  0
       25    1    1    2    0    0  -8.5420175643E+01   1.9358967459E+02  -4.2079037016E+02   4.8730186141E+02   1.2500000000E+02  0.  0
</event>
<event>
 4   0  0.3991300E-04  0.8148838E+03  0.7818609E-02  0.9538720E-01
       21   -1    0    0  502  501   0.0000000000E+00   0.0000000000E+00   5.8192900107E+01   5.8192900107E+01   0.0000000000E+00  0.  1
       21   -1    0    0  501  502   0.0000000000E+00   0.0000000000E+00  -2.8527347459E+03   2.8527347459E+03   0.0000000000E+00  0.  1
       25    1    1    2    0    0   8.3872849215E+00   1.0943212443E+02  -2.7259091217E+03   2.7309799113E+03   1.2500000000E+02  0.  0
       25    1    1    2    0    0  -8.3872849215E+00  -1.0943212443E+02  -6.8632724150E+01   1.7994773472E+02   1.2500000000E+02  0.  0
</event>
<event>
 4   0  0.3991300E-04  0.5068856E+03  0.7818609E-02  0.1011997E+00
       21   -1    0    0  502  501   0.0000000000E+00   0.0000000000E+00   9.4878079855E+02   9.4878079855E+02   0.0000000000E+00  0. -1
       21   -1    0    0  501  502   0.0000000000E+00   0.0000000000E+00  -6.7700825289E+01   6.7700825289E+01   0.0000000000E+00  0. -1
       25    1    1    2    0    0   2.6889470622E+01  -2.1398951229E+02   3.4878163540E+02   4.2870524162E+02   1.2500000000E+02  0.  0
       25    1    1    2    0    0  -2.6889470622E+01   2.1398951229E+02   5.3229833786E+02   5.8777638221E+02   1.2500000000E+02  0.  0
</event>
<event>
 4   0  0.3991300E-04  0.4329519E+03  0.7818609E-02  0.1032932E+00
       21   -1    0    0  502  501   0.0000000000E+00   0.0000000000E+00   2.5530820301E+01   2.5530820301E+01   0.0000000000E+00  0.  1
       21   -1    0    0  501  502   0.0000000000E+00   0.0000000000E+00  -1.8355005098E+03   1.8355005098E+03   0.0000000000E+00  0.  1
       25    1    1    2    0    0   1.2518882735E+02  -4.2329643796E+01  -1.4094428880E+03   1.4211327509E+03   1.2500000000E+02  0.  0
       25    1    1    2    0    0  -1.2518882735E+02   4.2329643796E+01  -4.0052680150E+02   4.3989857917E+02   1.2500000000E+02  0.  0
</event>
<event>
 4   0  0.3991300E-04  0.5020461E+03  0.7818609E-02  0.1013246E+00
       21   -1    0    0  502  501   0.0000000000E+00   0.0000000000E+00   4.3031281828E+01   4.3031281828E+01   0.0000000000E+00  0. -1
       21   -1    0    0  501  502   0.0000000000E+00   0.0000000000E+00  -1.4643431206E+03   1.4643431206E+03   0.0000000000E+00  0. -1
       25    1    1    2    0    0  -1.2926144322E+02  -1.6713505426E+02  -5.5335111761E+02   6.0536361505E+02   1.2500000000E+02  0.  0
       25    1    1    2    0    0   1.2926144322E+02   1.6713505426E+02  -8.6796072115E+02   9.0201078737E+02   1.2500000000E+02  0.  0
</event>
<event>
 4   0  0.3991300E-04  0.3820445E+03  0.7818609E-02  0.1050181E+00
       21   -1    0    0  502  501   0.0000000000E+00   0.0000000000E+00   3.9735629235E+02   3.9735629235E+02   0.0000000000E+00  0. -1
       21   -1    0    0  501  502   0.0000000000E+00   0.0000000000E+00  -9.1830699937E+01   9.1830699937E+01   0.0000000000E+00  0. -1
       25    1    1    2    0    0   1.4270431998E+02   7.5960807504E-01   1.2414817458E+02   2.2672200863E+02   1.2500000000E+02  0.  0
       25    1    1    2    0    0  -1.4270431998E+02  -7.5960807504E-01   1.8137741783E+02   2.6246498366E+02   1.2500000000E+02  0.  0
</event>
<event>
 4   0  0.3991300E-04  0.1053683E+04  0.7818609E-02  0.9251550E-01
       21   -1    0    0  502  501   0.0000000000E+00   0.0000000000E+00   2.3028245801E+02   2.3028245801E+02   0.0000000000E+00  0. -1
       21   -1    0    0  501  502   0.0000000000E+00   0.0000000000E+00  -1.2053112141E+03   1.2053112141E+03   0.0000000000E+00  0. -1
       25    1    1    2    0    0   2.5585207795E+02   1.6483718440E+02  -1.0481193909E+03   1.0985494257E+03   1.2500000000E+02  0.  0
       25    1    1    2    0    0  -2.5585207795E+02  -1.6483718440E+02   7.3090634792E+01   3.3704424642E+02   1.2500000000E+02  0.  0
</event>
<event>
 4   0  0.3991300E-04  0.3780709E+03  0.7818609E-02  0.1051649E+00
       21   -1    0    0  502  501   0.0000000000E+00   0.0000000000E+00   5.8322858277E+01   5.8322858277E+01   0.0000000000E+00  0.  1
       21   -1    0    0  501  502   0.0000000000E+00   0.0000000000E+00  -6.1269970206E+02   6.1269970206E+02   0.0000000000E+00  0.  1
       25    1    1    2    0    0   1.0072255683E+02  -9.9758256471E+01  -2.8350220739E+02   3.4072752279E+02   1.2500000000E+02  0.  0
       25    1    1    2    0    0  -1.0072255683E+02   9.9758256471E+01  -2.7087463639E+02   3.3029503755E+02   1.2500000000E+02  0.  0
</event>
<event>
 4   0  0.3991300E-04  0.4882038E+03  0.7818609E-02  0.1016905E+00
       21   -1    0    0  502  501   0.0000000000E+00   0.0000000000E+00   3.0154824271E+02   3.0154824271E+02   0.0000000000E+00  0. -1
       21   -1    0    0  501  502   0.0000000000E+00   0.0000000000E+00  -1.9759934976E+02   1.9759934976E+02   0.0000000000E+00  0. -1
       25    1    1    2    0    0   1.6780959429E+02  -1.1211538957E+02   1.1008887242E+02   2.6167628923E+02   1.2500000000E+02  0.  0
       25    1    1    2    0    0  -1.6780959429E+02   1.1211538957E+02  -6.1399794726E+00   2.3747130324E+02   1.2500000000E+02  0.  0
</event>
<event>
 4   0  0.3991300E-04  0.5772619E+03  0.7818609E-02  0.9953737E-01
       21   -1    0    0  502  501   0.0000000000E+00   0.0000000000E+00   1.8133079308E+02   1.8133079308E+02   0.0000000000E+00  0.  1
       21   -1    0    0  501  502   0.0000000000E+00   0.0000000000E+00  -4.5942458233E+02   4.5942458233E+02   0.0000000000E+00  0.  1
       25    1    1    2    0    0  -6.4565512852E+01  -2.1172977288E+02   1.2679634179E+01   2.5452696379E+02   1.2500000000E+02  0.  0
       25    1    1    2    0    0   6.4565512852E+01   2.1172977288E+02  -2.9077342343E+02   3.8622841162E+02   1.2500000000E+02  0.  0
</event>
<event>
 4   0  0.3991300E-04  0.4991676E+03  0.7818609E-02  0.1013996E+00
       21   -1    0    0  502  501   0.0000000000E+00   0.0000000000E+00   7.9094486153E+02   7.9094486153E+02   0.0000000000E+00  0.  1
       21   -1    0    0  501  502   0.0000000000E+00   0.0000000000E+00  -7.8756532202E+01   7.8756532202E+01   0.0000000000E+00  0.  1
       25    1    1    2    0    0  -1.7611835898E+02   1.2041375667E+02   4.1517662696E+02   4.8323263625E+02   1.2500000000E+02  0.  0
       25    1    1    2    0    0   1.7611835898E+02  -1.2041375667E+02   2.9701170237E+02   3.8646875748E+02   1.2500000000E+02  0.  0
</event>
<event>
 4   0  0.3991300E-04  0.5398088E+03  0.7818609E-02  0.1003881E+00
       21   -1    0    0  502  501   0.0000000000E+00   0.0000000000E+00   6.5339434101E+03   6.5339434101E+03   0.0000000000E+00  0. -1
       21   -1    0    0  501  502   0.0000000000E+00   0.0000000000E+00  -1.1149223660E+01   1.1149223660E+01   0.0000000000E+00  0. -1
       25    1    1    2    0    0   1.2485296102E+02  -6.5989842088E+00   7.8865652045E+02   8.0823011310E+02   1.2500000000E+02  0.  0
       25    1    1    2    0    0  -1.2485296102E+02   6.5989842088E+00   5.7341376660E+03   5.7368625207E+03   1.2500000000E+02  0.  0
</event>
<event>
 4   0  0.3991300E-04  0.3613445E+03  0.7818609E-02  0.1058053E+00
       21   -1    0    0  502  501   0.0000000000E+00   0.0000000000E+00   3.6478092317E+03   3.6478092317E+03   0.0000000000E+00  0.  1
       21   -1    0    0  501  502   0.0000000000E+00   0.0000000000E+00  -8.9485099344E+00   8.9485099344E+00   0.0000000000E+00  0.  1
       25    1    1    2    0    0  -7.3875599209E+01  -1.0302737811E+02   2.1305586252E+03   2.1379844013E+03   1.2500000000E+02  0.  0
       25    1    1    2    0    0   7.3875599209E+01   1.0302737811E+02   1.5083020966E+03   1.5187733403E+03   1.2500000000E+02  0.  0
</event>
<event>
 4   0  0.3991300E-04  0.4297532E+03  0.7818609E-02  0.1033938E+00
       21   -1    0    0  502  501   0.0000000000E+00   0.0000000000E+00   1.1624775399E+02   1.1624775399E+02   0.0000000000E+00  0. -1
       21   -1    0    0  501  502   0.0000000000E+00   0.0000000000E+00  -3.9718581876E+02   3.9718581876E+02   0.0000000000E+00  0. -1
       25    1    1    2    0    0   9.6350954523E+01  -7.2214924819E+00  -3.1446884826E+02   3.5192515244E+02   1.2500000000E+02  0.  0
       25    1    1    2    0    0  -9.6350954523E+01   7.2214924819E+00   3.3530783490E+01   1.6150842031E+02   1.2500000000E+02  0.  0
</event>
<event>
 4   0  0.3991300E-04  0.4463083E+03  0.7818609E-02  0.1028829E+00
       21   -1    0    0  502  501   0.0000000000E+00   0.0000000000E+00   2.8269490721E+01   2.8269490721E+01   0.0000000000E+00  0. -1
       21   -1    0    0  501  502   0.0000000000E+00   0.0000000000E+00  -1.7615377295E+03   1.7615377295E+03   0.0000000000E+00  0. -1
       25    1    1    2    0    0  -1.1206264282E+02  -3.0266180681E+01  -2.8967798489E+02   3.3617318831E+02   1.2500000000E+02  0.  0
       25    1    1    2    0    0   1.1206264282E+02   3.0266180681E+01  -1.4435902539E+03   1.4536340319E+03   1.2500000000E+02  0.  0
</event>
<event>
 4   0  0.3991300E-04  0.5414157E+03  0.7818609E-02  0.1003501E+00
       21   -1    0    0  502  501   0.0000000000E+00   0.0000000000E+00   4.6682475239E+01   4.6682475239E+01   0.0000000000E+00  0.  1
       21   -1    0    0  501  502   0.0000000000E+00   0.0000000000E+00  -1.5698125718E+03   1.5698125718E+03   0.0000000000E+00  0.  1
       25    1    1    2    0    0  -1.3799737162E+02   1.9207724245E+02  -6.3771160219E+02   6.9154756106E+02   1.2500000000E+02  0.  0
       25    1    1    2    0    0   1.3799737162E+02  -1.9207724245E+02  -8.8541849436E+02   9.2494748597E+02   1.2500000000E+02  0.  0
</event>
<event>
 4   0  0.3991300E-04  0.3850016E+03  0.7818609E-02  0.1049100E+00
       21   -1    0    0  502  501   0.0000000000E+00   0.0000000000E+00   6.6590747749E+02   6.6590747749E+02   0.0000000000E+00  0.  1
       21   -1    0    0  501  502   0.0000000000E+00   0.0000000000E+00  -5.5648197432E+01   5.5648197432E+01   0.0000000000E+00  0.  1
       25    1    1    2    0    0  -7.8672728596E+01  -2.8956178331E+01   8.0201251360E+01   1.7054354050E+02   1.2500000000E+02  0.  0
       25    1    1    2    0    0   7.8672728596E+01   2.8956178331E+01   5.3005802870E+02   5.5101213442E+02   1.2500000000E+02  0.  0
</event>
<event>
 4   0  0.3991300E-04  0.4337000E+03  0.7818609E-02  0.1032698E+00
       21   -1    0    0  502  501   0.0000000000E+00   0.0000000000E+00   5.0277187097E+03   5.0277187097E+03   0.0000000000E+00  0. -1
       21   -1    0    0  501  502   0.0000000000E+00   0.0000000000E+00  -9.3529326449E+00   9.3529326449E+00   0.0000000000E+00  0. -1
       25    1    1    2    0    0   5.7141492282E+01  -1.6477913995E+02   2.8730609505E+03   2.8810625714E+03   1.2500000000E+02  0.  0
       25    1    1    2    0    0  -5.7141492282E+01   1.6477913995E+02   2.1453048265E+03   2.1560090709E+03   1.2500000000E+02  0.  0
</event>
<event>
 4   0  0.3991300E-04  0.5420966E+03  0.7818609E-02  0.1003340E+00
       21   -1    0    0  502  501   0.0000000000E+00   0.0000000000E+00   1.6162134926E+02   1.6162134926E+02   0.0000000000E+00  0.  1
       21   -1    0    0  501  502   0.0000000000E+00   0.0000000000E+00  -4.5456350757E+02   4.5456350757E+02   0.0000000000E+00  0.  1
       25    1    1    2    0    0   1.1206367003E+02  -3.5454184256E+01  -3.8497385692E+02   4.2147969801E+02   1.2500000000E+02  0.  0
       25    1    1    2    0    0  -1.1206367003E+02   3.5454184256E+01   9.2031698606E+01   1.9470515882E+02   1.2500000000E+02  0.  0
</event>
<event>
 4   0  0.3991300E-04  0.4506462E+03  0.7818609E-02  0.1027530E+00
       21   -1    0    0  502  501   0.0000000000E+00   0.0000000000E+00   1.1245810483E+01   1.1245810483E+01   0.0000000000E+00  0. -1
       21   -1    0    0  501  502   0.0000000000E+00   0.0000000000E+00  -4.5146150476E+03   4.5146150476E+03   0.0000000000E+00  0. -1
       25    1    1    2    0    0  -9.0894048609E-01  -1.5395887050E+02  -3.3259312615E+03   3.3318385189E+03   1.2500000000E+02  0.  0
       25    1    1    2    0    0   9.0894048609E-01   1.5395887050E+02  -1.1774379756E+03   1.1940223391E+03   1.2500000000E+02  0.  0
</event>
<event>
 4   0  0.3991300E-04  0.3460489E+03  0.7818609E-02  0.1064249E+00
       21   -1    0    0  502  501   0.0000000000E+00   0.0000000000E+00   2.7729488876E+01   2.7729488876E+01   0.0000000000E+00  0.  1
       21   -1    0    0  501  502   0.0000000000E+00   0.0000000000E+00  -1.0796254821E+03   1.0796254821E+03   0.0000000000E+00  0.  1
       25    1    1    2    0    0   7.6803429651E+01   6.5953113968E+01  -7.2994319866E+02   7.4745612133E+02   1.2500000000E+02  0.  0
       25    1    1    2    0    0  -7.6803429651E+01  -6.5953113968E+01  -3.2195279458E+02   3.5989884966E+02   1.2500000000E+02  0.  0
</event>
<event>
 4   0  0.3991300E-04  0.4199045E+03  0.7818609E-02  0.1037097E+00
       21   -1    0    0  502  501   0.0000000000E+00   0.0000000000E+00   3.0936017378E+01   3.0936017378E+01   0.0000000000E+00  0.  1
       21   -1    0    0  501  502   0.0000000000E+00   0.0000000000E+00  -1.4248748028E+03   1.4248748028E+03   0.0000000000E+00  0.  1
       25    1    1    2    0    0  -1.1394684485E+02   1.2056786751E+02  -5.9098688845E+02   6.2642716771E+02   1.2500000000E+02  0.  0
       25    1    1    2    0    0   1.1394684485E+02  -1.2056786751E+02  -8.0295189695E+02   8.2938365245E+02   1.2500000000E+02  0.  0
</event>
<event>
 4   0  0.3991300E-04  0.5946016E+03  0.7818609E-02  0.9916670E-01
       21   -1    0    0  502  501   0.0000000000E+00   0.0000000000E+00   2.3335459764E+02   2.3335459764E+02   0.0000000000E+00  0. -1
       21   -1    0    0  501  502   0.0000000000E+00   0.0000000000E+00  -3.7877021747E+02   3.7877021747E+02   0.0000000000E+00  0. -1
       25    1    1    2    0    0   7.5746150887E+01  -1.2245798288E+02  -3.0752940516E+02   3.6184633753E+02   1.2500000000E+02  0.  0
       25    1    1    2    0    0  -7.5746150887E+01   1.2245798288E+02   1.6211378533E+02   2.5027847758E+02   1.2500000000E+02  0.  0
</event>
<event>
 4   0  0.3991300E-04  0.8430909E+03  0.7818609E-02  0.9499657E-01
       21   -1    0    0  502  501   0.0000000000E+00   0.0000000000E+00   4.2004050804E+03   4.2004050804E+03   0.0000000000E+00  0.  1
       21   -1    0    0  501  502   0.0000000000E+00   0.0000000000E+00  -4.2305583185E+01   4.2305583185E+01   0.0000000000E+00  0.  1
       25    1    1    2    0    0  -3.5420541809E+02  -1.8955692526E+02   1.9476028192E+03   1.9925298109E+03   1.2500000000E+02  0.  0
       25    1    1    2    0    0   3.5420541809E+02   1.8955692526E+02   2.2104966781E+03   2.2501808527E+03   1.2500000000E+02  0.  0
</event>
<event>
 4   0  0.3991300E-04  0.4460399E+03  0.7818609E-02  0.1028910E+00
       21   -1    0    0  502  501   0.0000000000E+00   0.0000000000E+00   1.5182028426E+02   1.5182028426E+02   0.0000000000E+00  0.  1
       21   -1    0    0  501  502   0.0000000000E+00   0.0000000000E+00  -3.2761039208E+02   3.2761039208E+02   0.0000000000E+00  0.  1
       25    1    1    2    0    0   3.7109107640E+01   4.9455176720E+01   9.9173910817E+01   1.7112382932E+02   1.2500000000E+02  0.  0
       25    1    1    2    0    0  -3.7109107640E+01  -4.9455176720E+01  -2.7496401864E+02   3.0830684702E+02   1.2500000000E+02  0.  0
</event>
<event>
 4   0  0.3991300E-04  0.4132754E+03  0.7818609E-02  0.1039277E+00
       21   -1    0    0  502  501   0.0000000000E+00   0.0000000000E+00   2.2237736486E+00   2.2237736486E+00   0.0000000000E+00  0.  1
       21   -1    0    0  501  502   0.0000000000E+00   0.0000000000E+00  -1.9201209578E+04   1.9201209578E+04   0.0000000000E+00  0.  1
       25    1    1    2    0    0   2.8765734982E+01   1.0420216842E+02  -1.5363687571E+04   1.5364576347E+04   1.2500000000E+02  0.  0
       25    1    1    2    0    0  -2.8765734982E+01  -1.0420216842E+02  -3.8352982334E+03   3.8388570042E+03   1.2500000000E+02  0.  0
</event>
<event>
 4   0  0.3991300E-04  0.5416376E+03  0.7818609E-02  0.1003448E+00
       21   -1    0    0  502  501   0.0000000000E+00   0.0000000000E+00   2.0715177430E+01   2.0715177430E+01   0.0000000000E+00  0.  1
       21   -1    0    0  501  502   0.0000000000E+00   0.0000000000E+00  -3.5405349839E+03   3.5405349839E+03   0.0000000000E+00  0. -1
       25    1    1    2    0    0  -2.0811726116E+02  -6.7172433089E+01  -2.4138757804E+03   2.4269829446E+03   1.2500000000E+02  0.  0
       25    1    1    2    0    0   2.0811726116E+02   6.7172433089E+01  -1.1059440261E+03   1.1342672167E+03   1.2500000000E+02  0.  0
</event>
<event>
 4   0  0.3991300E-04  0.4972545E+03  0.7818609E-02  0.1014498E+00
       21   -1    0    0  502  501   0.0000000000E+00   0.0000000000E+00   1.3481351070E+02   1.3481351070E+02   0.0000000000E+00  0. -1
       21   -1    0    0  501  502   0.0000000000E+00   0.0000000000E+00  -4.5852608799E+02   4.5852608799E+02   0.0000000000E+00  0. -1
       25    1    1    2    0    0  -1.6593422537E+02  -9.6717864399E+01  -2.7693970695E+02   3.5945669243E+02   1.2500000000E+02  0.  0
       25    1    1    2    0    0   1.6593422537E+02   9.6717864399E+01  -4.6772870344E+01   2.3388290627E+02   1.2500000000E+02  0.  0
</event>
<event>
 4   0  0.3991300E-04  0.4525785E+03  0.7818609E-02  0.1026956E+00
       21   -1    0    0  502  501   0.0000000000E+00   0.0000000000E+00   3.6686253401E+02   3.6686253401E+02   0.0000000000E+00  0.  1
       21   -1    0    0  501  502   0.0000000000E+00   0.0000000000E+00  -1.3958043637E+02   1.3958043637E+02   0.0000000000E+00  0.  1
       25    1    1    2    0    0  -1.4027968626E+02   8.3251518343E+01   2.1963873855E+02   3.0079125844E+02   1.2500000000E+02  0.  0
       25    1    1    2    0    0   1.4027968626E+02  -8.3251518343E+01   7.6433590841E+00   2.0565171194E+02   1.2500000000E+02  0.  0
</event>
<event>
 4   0  0.3991300E-04  0.3781150E+03  0.7818609E-02  0.1051633E+00
       21   -1    0    0  502  501   0.0000000000E+00   0.0000000000E+00   2.8618278843E+01   2.8618278843E+01   0.0000000000E+00  0. -1
       21   -1    0    0  501  502   0.0000000000E+00   0.0000000000E+00  -1.2489479345E+03   1.2489479345E+03   0.0000000000E+00  0. -1
       25    1    1    2    0    0  -1.0246512120E+02  -9.5837475184E+01  -6.8053896003E+02   7.0600439009E+02   1.2500000000E+02  0.  0
       25    1    1    2    0    0   1.0246512120E+02   9.5837475184E+01  -5.3979069561E+02   5.7156182323E+02   1.2500000000E+02  0.  0
</event>
<event>
 4   0  0.3991300E-04  0.6010334E+03  0.7818609E-02  0.9903264E-01
       21   -1    0    0  502  501   0.0000000000E+00   0.0000000000E+00   2.0576096910E+01   2.0576096910E+01   0.0000000000E+00  0.  1
       21   -1    0    0  501  502   0.0000000000E+00   0.0000000000E+00  -4.3890875486E+03   4.3890875486E+03   0.0000000000E+00  0.  1
       25    1    1    2    0    0  -1.6436179590E+01  -2.5039732172E+02  -2.9784057168E+03   2.9915705876E+03   1.2500000000E+02  0.  0
       25    1    1    2    0    0   1.6436179590E+01   2.5039732172E+02  -1.3901057349E+03   1.4180930579E+03   1.2500000000E+02  0.  0
</event>
<event>
 4   0  0.3991300E-04  0.5094104E+03  0.7818609E-02  0.1011351E+00
       21   -1    0    0  502  501   0.0000000000E+00   0.0000000000E+00   1.2405031706E+03   1.2405031706E+03   0.0000000000E+00  0. -1
       21   -1    0    0  501  502   0.0000000000E+00   0.0000000000E+00  -5.2297113081E+01   5.2297113081E+01   0.0000000000E+00  0. -1
       25    1    1    2    0    0  -1.5050262611E+02   1.4153123018E+02   7.9977123416E+02   8.3542872621E+02   1.2500000000E+02  0.  0
       25    1    1    2    0    0   1.5050262611E+02  -1.4153123018E+02   3.8843482331E+02   4.5737155743E+02   1.2500000000E+02  0.  0
</event>
<event>
 4   0  0.3991300E-04  0.4065555E+03  0.7818609E-02  0.1041533E+00
       21   -1    0    0  502  501   0.0000000000E+00   0.0000000000E+00   1.0712611443E+02   1.0712611443E+02   0.0000000000E+00  0.  1
       21   -1    0    0  501  502   0.0000000000E+00   0.0000000000E+00  -3.8573078642E+02   3.8573078642E+02   0.0000000000E+00  0.  1
       25    1    1    2    0    0  -1.5831938788E+02   2.5112998320E+01  -1.4060184736E+02   2.4716304486E+02   1.2500000000E+02  0.  0
       25    1    1    2    0    0   1.5831938788E+02  -2.5112998320E+01  -1.3800282463E+02   2.4569385599E+02   1.2500000000E+02  0.  0
</event>
<event>
 4   0  0.3991300E-04  0.4477502E+03  0.7818609E-02  0.1028395E+00
       21   -1    0    0  502  501   0.0000000000E+00   0.0000000000E+00   5.1084413394E+03   5.1084413394E+03   0.0000000000E+00  0.  1
       21   -1    0    0  501  502   0.0000000000E+00   0.0000000000E+00  -9.8112234973E+00   9.8112234973E+00   0.0000000000E+00  0.  1
       25    1    1    2    0    0  -1.4009422595E+02  -4.3384760469E+01   1.2466558354E+03   1.2614612168E+03   1.2500000000E+02  0.  0
       25    1    1    2    0    0   1.4009422595E+02   4.3384760469E+01   3.8519742805E+03   3.8567913461E+03   1.2500000000E+02  0.  0
</event>
<event>
 4   0  0.3991300E-04  0.6018223E+03  0.7818609E-02  0.9901633E-01
       21   -1    0    0  502  501   0.0000000000E+00   0.0000000000E+00   6.1826146777E+01   6.1826146777E+01   0.0000000000E+00  0. -1
       21   -1    0    0  501  502   0.0000000000E+00   0.0000000000E+00  -1.4645506499E+03   1.4645506499E+03   0.0000000000E+00  0. -1
       25    1    1    2    0    0  -2.1989574674E+02   1.6146466570E+02  -6.4478915132E+02   7.1119830383E+02   1.2500000000E+02  0.  0
       25    1    1    2    0    0   2.1989574674E+02  -1.6146466570E+02  -7.5793535184E+02   8.1517849289E+02   1.2500000000E+02  0.  0
</event>
<event>
 4   0  0.3991300E-04  0.4885771E+03  0.7818609E-02  0.1016804E+00
       21   -1    0    0  502  501   0.0000000000E+00   0.0000000000E+00   3.6727243060E+02   3.6727243060E+02   0.0000000000E+00  0. -1
       21   -1    0    0  501  502   0.0000000000E+00   0.0000000000E+00  -1.6248672550E+02   1.6248672550E+02   0.0000000000E+00  0. -1
       25    1    1    2    0    0   1.1074929503E+02  -3.9894324089E+01   2.9080651430E+02   3.3771347649E+02   1.2500000000E+02  0.  0
       25    1    1    2    0    0  -1.1074929503E+02   3.9894324089E+01  -8.6020809197E+01   1.9204567961E+02   1.2500000000E+02  0.  0
</event>
<event>
 4   0  0.3991300E-04  0.5417667E+03  0.7818609E-02  0.1003418E+00
       21   -1    0    0  502  501   0.0000000000E+00   0.0000000000E+00   1.4430824890E+03   1.4430824890E+03   0.0000000000E+00  0.  1
       21   -1    0    0  501  502   0.0000000000E+00   0.0000000000E+00  -5.0847957537E+01   5.0847957537E+01   0.0000000000E+00  0.  1
       25    1    1    2    0    0   1.1178367973E+02  -1.9506907619E+02   9.3018573987E+02   9.6510001875E+02   1.2500000000E+02  0.  0
       25    1    1    2    0    0  -1.1178367973E+02   1.9506907619E+02   4.6204879159E+02   5.2883042778E+02   1.2500000000E+02  0.  0
</event>
<event>
 4   0  0.3991300E-04  0.5705979E+03  0.7818609E-02  0.9968356E-01
       21   -1    0    0  502  501   0.0000000000E+00   0.0000000000E+00   1.0055902709E+02   1.0055902709E+02   0.0000000000E+00  0.  1
       21   -1    0    0  501  502   0.0000000000E+00   0.0000000000E+00  -8.0942995154E+02   8.0942995154E+02   0.0000000000E+00  0.  1
       25    1    1    2    0    0  -9.0176383846E+01  -2.3735867050E+02  -2.9694368057E+02   4.1020905414E+02   1.2500000000E+02  0.  0
       25    1    1    2    0    0   9.0176383846E+01   2.3735867050E+02  -4.1192724389E+02   4.9977992449E+02   1.2500000000E+02  0.  0
</event>
<event>
 4   0  0.3991300E-04  0.7278385E+03  0.7818609E-02  0.9670774E-01
       21   -1    0    0  502  501   0.0000000000E+00   0.0000000000E+00   1.8241073461E+03   1.8241073461E+03   0.0000000000E+00  0. -1
       21   -1    0    0  501  502   0.0000000000E+00   0.0000000000E+00  -7.2603854827E+01   7.2603854827E+01   0.0000000000E+00  0. -1
       25    1    1    2    0    0  -2.5377076214E+02   2.0864975759E+02   6.3021222893E+02   7.2161400663E+02   1.2500000000E+02  0.  0
       25    1    1    2    0    0   2.5377076214E+02  -2.0864975759E+02   1.1212912623E+03   1.1750971943E+03   1.2500000000E+02  0.  0
</event>
<event>
 4   0  0.3991300E-04  0.3972833E+03  0.7818609E-02  0.1044724E+00
       21   -1    0    0  502  501   0.0000000000E+00   0.0000000000E+00   2.7395470163E+01   2.7395470163E+01   0.0000000000E+00  0.  1
       21   -1    0    0  501  502   0.0000000000E+00   0.0000000000E+00  -1.4403293113E+03   1.4403293113E+03   0.0000000000E+00  0.  1
       25    1    1    2    0    0  -7.0602873806E+01   9.0371634921E+01  -3.2464175309E+02   3.6629095817E+02   1.2500000000E+02  0.  0
       25    1    1    2    0    0   7.0602873806E+01  -9.0371634921E+01  -1.0882920880E+03   1.1014338233E+03   1.2500000000E+02  0.  0
</event>
<event>
 4   0  0.3991300E-04  0.3502702E+03  0.7818609E-02  0.1062504E+00
       21   -1    0    0  502  501   0.0000000000E+00   0.0000000000E+00   1.6558592711E+01   1.6558592711E+01   0.0000000000E+00  0. -1
       21   -1    0    0  501  502   0.0000000000E+00   0.0000000000E+00  -1.8523495642E+03   1.8523495642E+03   0.0000000000E+00  0. -1
       25    1    1    2    0    0   3.0804177811E+01  -9.2918971142E+00  -2.8630460047E+02   3.1405502858E+02   1.2500000000E+02  0.  0
       25    1    1    2    0    0  -3.0804177811E+01   9.2918971142E+00  -1.5494863710E+03   1.5548531283E+03   1.2500000000E+02  0.  0
</event>
<event>
 4   0  0.3991300E-04  0.5678871E+03  0.7818609E-02  0.9974365E-01
       21   -1    0    0  502  501   0.0000000000E+00   0.0000000000E+00   2.6647584713E+02   2.6647584713E+02   0.0000000000E+00  0.  1
       21   -1    0    0  501  502   0.0000000000E+00   0.0000000000E+00  -3.0255625636E+02   3.0255625636E+02   0.0000000000E+00  0.  1
       25    1    1    2    0    0  -7.9164699446E+01   1.6551334135E+02  -1.9542034913E+02   2.9576312931E+02   1.2500000000E+02  0.  0
       25    1    1    2    0    0   7.9164699446E+01  -1.6551334135E+02   1.5933993990E+02   2.7326897419E+02   1.2500000000E+02  0.  0
</event>
<event>
 4   0  0.3991300E-04  0.4552109E+03  0.7818609E-02  0.1026179E+00
       21   -1    0    0  502  501   0.0000000000E+00   0.0000000000E+00   1.6062374139E+02   1.6062374139E+02   0.0000000000E+00  0.  1
       21   -1    0    0  501  502   0.0000000000E+00   0.0000000000E+00  -3.2251925691E+02   3.2251925691E+02   0.0000000000E+00  0.  1
       25    1    1    2    0    0  -1.4964772581E+02  -1.5673151012E+01   4.2549940706E+01   2.0018887821E+02   1.2500000000E+02  0.  0
       25    1    1    2    0    0   1.4964772581E+02   1.5673151012E+01  -2.0444545623E+02   2.8295412009E+02   1.2500000000E+02  0.  0
</event>
<event>
 4   0  0.3991300E-04  0.5173126E+03  0.7818609E-02  0.1009356E+00
       21   -1    0    0  502  501   0.0000000000E+00   0.0000000000E+00   3.3828399804E+02   3.3828399804E+02   0.0000000000E+00  0. -1
       21   -1    0    0  501  502   0.0000000000E+00   0.0000000000E+00  -1.9777195739E+02   1.9777195739E+02   0.0000000000E+00  0. -1
       25    1    1    2    0    0  -1.7413449812E+02  -2.1365371720E+01  -7.8105445676E+01   2.2913917864E+02   1.2500000000E+02  0.  0
       25    1    1    2    0    0   1.7413449812E+02   2.1365371720E+01   2.1861748632E+02   3.0691677679E+02   1.2500000000E+02  0.  0
</event>
<event>
 4   0  0.3991300E-04  0.4874069E+03  0.7818609E-02  0.1017119E+00
       21   -1    0    0  502  501   0.0000000000E+00   0.0000000000E+00   1.3812819916E+03   1.3812819916E+03   0.0000000000E+00  0. -1
       21   -1    0    0  501  502   0.0000000000E+00   0.0000000000E+00  -4.2997287234E+01   4.2997287234E+01   0.0000000000E+00  0. -1
       25    1    1    2    0    0   1.9317928572E+02   3.2658077570E+01   8.8350980390E+02   9.1356409739E+02   1.2500000000E+02  0.  0
       25    1    1    2    0    0  -1.9317928572E+02  -3.2658077570E+01   4.5477490047E+02   5.1071518144E+02   1.2500000000E+02  0.  0
</event>
<event>
 4   0  0.3991300E-04  0.5104035E+03  0.7818609E-02  0.1011099E+00
       21   -1    0    0  502  501   0.0000000000E+00   0.0000000000E+00   3.3719749619E+01   3.3719749619E+01   0.0000000000E+00  0. -1
       21   -1    0    0  501  502   0.0000000000E+00   0.0000000000E+00  -1.9314478932E+03   1.9314478932E+03   0.0000000000E+00  0. -1
       25    1    1    2    0    0   1.9456552233E+02  -3.7111595396E+01  -5.5867993824E+02   6.0578980380E+02   1.2500000000E+02  0.  0
       25    1    1    2    0    0  -1.9456552233E+02   3.7111595396E+01  -1.3390482054E+03   1.3593778390E+03   1.2500000000E+02  0.  0
</event>
<event>
 4   0  0.3991300E-04  0.5100079E+03  0.7818609E-02  0.1011199E+00
       21   -1    0    0  502  501   0.0000000000E+00   0.0000000000E+00   1.3957260495E+03   1.3957260495E+03   0.0000000000E+00  0. -1
       21   -1    0    0  501  502   0.0000000000E+00   0.0000000000E+00  -4.6590098636E+01   4.6590098636E+01   0.0000000000E+00  0. -1
       25    1    1    2    0    0   1.0420683044E+02  -1.4860787037E+02   1.0373791795E+03   1.0605300207E+03   1.2500000000E+02  0.  0
       25    1    1    2    0    0  -1.0420683044E+02   1.4860787037E+02   3.1175677137E+02   3.8178612749E+02   1.2500000000E+02  0.  0
</event>
<event>
 4   0  0.3991300E-04  0.4731352E+03  0.7818609E-02  0.1021039E+00
       21   -1    0    0  502  501   0.0000000000E+00   0.0000000000E+00   4.3508114002E+01   4.3508114002E+01   0.0000000000E+00  0.  1
       21   -1    0    0  501  502   0.0000000000E+00   0.0000000000E+00  -1.2862939450E+03   1.2862939450E+03   0.0000000000E+00  0.  1
       25    1    1    2    0    0   4.7209785417E+01   1.9470764016E+02  -6.6108084904E+02   7.0199196430E+02   1.2500000000E+02  0.  0
       25    1    1    2    0    0  -4.7209785417E+01  -1.9470764016E+02  -5.8170498197E+02   6.2781009472E+02   1.2500000000E+02  0.  0
</event>
<event>
 4   0  0.3991300E-04  0.6125816E+03  0.7818609E-02  0.9879642E-01
       21   -1    0    0  502  501   0.0000000000E+00   0.0000000000E+00   6.4770041017E+02   6.4770041017E+02   0.0000000000E+00  0.  1
       21   -1    0    0  501  502   0.0000000000E+00   0.0000000000E+00  -1.4484172099E+02   1.4484172099E+02   0.0000000000E+00  0.  1
       25    1    1    2    0    0  -1.6964203117E+01   1.7812834761E+02  -2.6571211167E+01   2.1988297267E+02   1.2500000000E+02  0.  0
       25    1    1    2    0    0   1.6964203117E+01  -1.7812834761E+02   5.2942990035E+02   5.7265915848E+02   1.2500000000E+02  0.  0
</event>
<event>
 4   0  0.3991300E-04  0.3674274E+03  0.7818609E-02  0.1055681E+00
       21   -1    0    0  502  501   0.0000000000E+00   0.0000000000E+00   1.0480572300E+03   1.0480572300E+03   0.0000000000E+00  0.  1
       21   -1    0    0  501  502   0.0000000000E+00   0.0000000000E+00  -3.2203135772E+01   3.2203135772E+01   0.0000000000E+00  0.  1
       25    1    1    2    0    0   7.7742760116E+01  -7.6200954366E+01   2.7502629184E+02   3.2111521827E+02   1.2500000000E+02  0.  0
       25    1    1    2    0    0  -7.7742760116E+01   7.6200954366E+01   7.4082780243E+02   7.5914514755E+02   1.2500000000E+02  0.  0
</event>
<event>
 4   0  0.3991300E-04  0.3979319E+03  0.7818609E-02  0.1044498E+00
       21   -1    0    0  502  501   0.0000000000E+00   0.0000000000E+00   1.6569676632E+03   1.6569676632E+03   0.0000000000E+00  0.  1
       21   -1    0    0  501  502   0.0000000000E+00   0.0000000000E+00  -2.3891498983E+01   2.3891498983E+01   0.0000000000E+00  0.  1
       25    1    1    2    0    0  -6.2982221064E+01  -1.6228220800E+01   1.4098891855E+03   1.4169130639E+03   1.2500000000E+02  0.  0
       25    1    1    2    0    0   6.2982221064E+01   1.6228220800E+01   2.2318697873E+02   2.6394609828E+02   1.2500000000E+02  0.  0
</event>
<event>
 4   0  0.3991300E-04  0.5943161E+03  0.7818609E-02  0.9917269E-01
       21   -1    0    0  502  501   0.0000000000E+00   0.0000000000E+00   3.9926031705E+03   3.9926031705E+03   0.0000000000E+00  0. -1
       21   -1    0    0  501  502   0.0000000000E+00   0.0000000000E+00  -2.2116623421E+01   2.2116623421E+01   0.0000000000E+00  0. -1
       25    1    1    2    0    0  -2.3927309683E+02   1.0095157953E+02   2.4740067862E+03   2.4907383271E+03   1.2500000000E+02  0.  0
       25    1    1    2    0    0   2.3927309683E+02  -1.0095157953E+02   1.4964797609E+03   1.5239814668E+03   1.2500000000E+02  0.  0
</event>
<event>
 4   0  0.3991300E-04  0.5254111E+03  0.7818609E-02  0.1007351E+00
       21   -1    0    0  502  501   0.0000000000E+00   0.0000000000E+00   8.6532361293E+01   8.6532361293E+01   0.0000000000E+00  0.  1
       21   -1    0    0  501  502   0.0000000000E+00   0.0000000000E+00  -7.9755361461E+02   7.9755361461E+02   0.0000000000E+00  0.  1
       25    1    1    2    0    0  -6.5519867230E+01   1.5877451215E+02  -9.5449117417E+01   2.3288995840E+02   1.2500000000E+02  0.  0
       25    1    1    2    0    0   6.5519867230E+01  -1.5877451215E+02  -6.1557213590E+02   6.5119601750E+02   1.2500000000E+02  0.  0
</event>
<event>
 4   0  0.3991300E-04  0.4664638E+03  0.7818609E-02  0.1022923E+00
       21   -1    0    0  502  501   0.0000000000E+00   0.0000000000E+00   2.8068523645E+01   2.8068523645E+01   0.0000000000E+00  0.  1
       21   -1    0    0  501  502   0.0000000000E+00   0.0000000000E+00  -1.9380113298E+03   1.9380113298E+03   0.0000000000E+00  0.  1
       25    1    1    2    0    0  -4.3878871420E+01   1.8038011305E+02  -6.7827049754E+02   7.1423960152E+02   1.2500000000E+02  0.  0
       25    1    1    2    0    0   4.3878871420E+01  -1.8038011305E+02  -1.2316723086E+03   1.2518402520E+03   1.2500000000E+02  0.  0
</event>
<event>
 4   0  0.3991300E-04  0.3425161E+03  0.7818609E-02  0.1065729E+00
       21   -1    0    0  502  501   0.0000000000E+00   0.0000000000E+00   1.3067623198E+02   1.3067623198E+02   0.0000000000E+00  0.  1
       21   -1    0    0  501  502   0.0000000000E+00   0.0000000000E+00  -2.2444260376E+02   2.2444260376E+02   0.0000000000E+00  0.  1
       25    1    1    2    0    0  -4.8275312897E+01  -8.7269210869E+01   1.6674042852E+01   1.6077762502E+02   1.2500000000E+02  0.  0
       25    1    1    2    0    0   4.8275312897E+01   8.7269210869E+01  -1.1044041463E+02   1.9434121072E+02   1.2500000000E+02  0.  0
</event>
<event>
 4   0  0.3991300E-04  0.4739820E+03  0.7818609E-02  0.1020802E+00
       21   -1    0    0  502  501   0.0000000000E+00   0.0000000000E+00   4.6214949848E+03   4.6214949848E+03   0.0000000000E+00  0.  1
       21   -1    0    0  501  502   0.0000000000E+00   0.0000000000E+00  -1.2152935281E+01   1.2152935281E+01   0.0000000000E+00  0.  1
       25    1    1    2    0    0   1.0891230866E+02   5.4904241583E+01   3.8707655866E+03   3.8747035491E+03   1.2500000000E+02  0.  0
       25    1    1    2    0    0  -1.0891230866E+02  -5.4904241583E+01   7.3857646297E+02   7.5894437107E+02   1.2500000000E+02  0.  0
</event>
<event>
 4   0  0.3991300E-04  0.9058259E+03  0.7818609E-02  0.9418328E-01
       21   -1    0    0  502  501   0.0000000000E+00   0.0000000000E+00   1.5218553047E+03   1.5218553047E+03   0.0000000000E+00  0. -1
       21   -1    0    0  501  502   0.0000000000E+00   0.0000000000E+00  -1.3478951312E+02   1.3478951312E+02   0.0000000000E+00  0. -1
       25    1    1    2    0    0   1.5237159960E+02   3.5873090229E+02   1.0481662558E+03   1.1252477347E+03   1.2500000000E+02  0.  0
       25    1    1    2    0    0  -1.5237159960E+02  -3.5873090229E+02   3.3889953581E+02   5.3139708316E+02   1.2500000000E+02  0.  0
</event>
<event>
 4   0  0.3991300E-04  0.6777317E+03  0.7818609E-02  0.9756091E-01
       21   -1    0    0  502  501   0.0000000000E+00   0.0000000000E+00   3.4695594107E+02   3.4695594107E+02   0.0000000000E+00  0. -1
       21   -1    0    0  501  502   0.0000000000E+00   0.0000000000E+00  -3.3096436253E+02   3.3096436253E+02   0.0000000000E+00  0. -1
       25    1    1    2    0    0  -1.0024946099E+02  -2.7972730782E+02  -9.6473362479E+01   3.3649581103E+02   1.2500000000E+02  0.  0
       25    1    1    2    0    0   1.0024946099E+02   2.7972730782E+02   1.1246494101E+02   3.4142449257E+02   1.2500000000E+02  0.  0
</event>
<event>
 4   0  0.3991300E-04  0.4425645E+03  0.7818609E-02  0.1029963E+00
       21   -1    0    0  502  501   0.0000000000E+00   0.0000000000E+00   6.0405637436E+00   6.0405637436E+00   0.0000000000E+00  0. -1
       21   -1    0    0  501  502   0.0000000000E+00   0.0000000000E+00  -8.1061684576E+03   8.1061684576E+03   0.0000000000E+00  0. -1
       25    1    1    2    0    0  -5.4838732726E+01  -5.4564746957E+01  -7.0817952244E+03   7.0833207748E+03   1.2500000000E+02  0.  0
       25    1    1    2    0    0   5.4838732726E+01   5.4564746957E+01  -1.0183326695E+03   1.0288882466E+03   1.2500000000E+02  0.  0
</event>
<event>
 4   0  0.3991300E-04  0.4142932E+03  0.7818609E-02  0.1038940E+00
       21   -1    0    0  502  501   0.0000000000E+00   0.0000000000E+00   1.9711422924E+02   1.9711422924E+02   0.0000000000E+00  0.  1
       21   -1    0    0  501  502   0.0000000000E+00   0.0000000000E+00  -2.1768961038E+02   2.1768961038E+02   0.0000000000E+00  0.  1
       25    1    1    2    0    0  -3.6245036511E+01   3.8105620574E+01  -1.6706605226E+02   2.1517854635E+02   1.2500000000E+02  0.  0
       25    1    1    2    0    0   3.6245036511E+01  -3.8105620574E+01   1.4649067112E+02   1.9962529327E+02   1.2500000000E+02  0.  0
</event>
<event>
 4   0  0.3991300E-04  0.4782582E+03  0.7818609E-02  0.1019615E+00
       21   -1    0    0  502  501   0.0000000000E+00   0.0000000000E+00   5.7724953231E+01   5.7724953231E+01   0.0000000000E+00  0. -1
       21   -1    0    0  501  502   0.0000000000E+00   0.0000000000E+00  -9.9060671138E+02   9.9060671138E+02   0.0000000000E+00  0. -1
       25    1    1    2    0    0   1.4279316535E+02  -1.4360758778E+02  -5.1759898633E+02   5.6969003676E+02   1.2500000000E+02  0.  0
       25    1    1    2    0    0  -1.4279316535E+02   1.4360758778E+02  -4.1528277182E+02   4.7864162785E+02   1.2500000000E+02  0.  0
</event>
<event>
 4   0  0.3991300E-04  0.4662359E+03  0.7818609E-02  0.1022988E+00
       21   -1    0    0  502  501   0.0000000000E+00   0.0000000000E+00   1.2183941708E+03   1.2183941708E+03   0.0000000000E+00  0. -1
       21   -1    0    0  501  502   0.0000000000E+00   0.0000000000E+00  -4.4602958574E+01   4.4602958574E+01   0.0000000000E+00  0. -1
       25    1    1    2    0    0  -9.1136860944E+01  -7.2521271991E+01   1.0165287327E+03   1.0307865573E+03   1.2500000000E+02  0.  0
       25    1    1    2    0    0   9.1136860944E+01   7.2521271991E+01   1.5726247952E+02   2.3221057206E+02   1.2500000000E+02  0.  0
</event>
<event>
 4   0  0.3991300E-04  0.5425313E+03  0.7818609E-02  0.1003238E+00
       21   -1    0    0  502  501   0.0000000000E+00   0.0000000000E+00   1.2458258096E+02   1.2458258096E+02   0.0000000000E+00  0.  1
       21   -1    0    0  501  502   0.0000000000E+00   0.0000000000E+00  -5.9065292644E+02   5.9065292644E+02   0.0000000000E+00  0.  1
       25    1    1    2    0    0   3.1398009275E+01  -2.7207753360E+01   7.9589750652E+01   1.5390134905E+02   1.2500000000E+02  0.  0
       25    1    1    2    0    0  -3.1398009275E+01   2.7207753360E+01  -5.4566009613E+02   5.6133415836E+02   1.2500000000E+02  0.  0
</event>
<event>
 4   0  0.3991300E-04  0.3996921E+03  0.7818609E-02  0.1043886E+00
       21   -1    0    0  502  501   0.0000000000E+00   0.0000000000E+00   5.3814531158E+01   5.3814531158E+01   0.0000000000E+00  0.  1
       21   -1    0    0  501  502   0.0000000000E+00   0.0000000000E+00  -7.4214995277E+02   7.4214995277E+02   0.0000000000E+00  0. -1
       25    1    1    2    0    0  -1.9331306143E+01  -1.4691777615E+02  -2.4752789217E+02   3.1440990721E+02   1.2500000000E+02  0.  0
       25    1    1    2    0    0   1.9331306143E+01   1.4691777615E+02  -4.4080752944E+02   4.8155457672E+02   1.2500000000E+02  0.  0
</event>
<event>
 4   0  0.3991300E-04  0.4091104E+03  0.7818609E-02  0.1040670E+00
       21   -1    0    0  502  501   0.0000000000E+00   0.0000000000E+00   3.3597521713E+03   3.3597521713E+03   0.0000000000E+00  0. -1
       21   -1    0    0  501  502   0.0000000000E+00   0.0000000000E+00  -1.2454144458E+01   1.2454144458E+01   0.0000000000E+00  0. -1
       25    1    1    2    0    0   1.3247327848E+02  -8.5657627532E+01   1.9744189374E+03   1.9846514906E+03   1.2500000000E+02  0.  0
       25    1    1    2    0    0  -1.3247327848E+02   8.5657627532E+01   1.3728790895E+03   1.3875548252E+03   1.2500000000E+02  0.  0
</event>
<event>
 4   0  0.3991300E-04  0.5087797E+03  0.7818609E-02  0.1011512E+00
       21   -1    0    0  502  501   0.0000000000E+00   0.0000000000E+00   2.7594726080E+03   2.7594726080E+03   0.0000000000E+00  0. -1
       21   -1    0    0  501  502   0.0000000000E+00   0.0000000000E+00  -2.3451656634E+01   2.3451656634E+01   0.0000000000E+00  0. -1
       25    1    1    2    0    0   1.5864368109E+02  -1.5406537880E+02   1.4424571895E+03   1.4646541237E+03   1.2500000000E+02  0.  0
       25    1    1    2    0    0  -1.5864368109E+02   1.5406537880E+02   1.2935637618E+03   1.3182701409E+03   1.2500000000E+02  0.  0
</event>
<event>
 4   0  0.3991300E-04  0.3899167E+03  0.7818609E-02  0.1047328E+00
       21   -1    0    0  502  501   0.0000000000E+00   0.0000000000E+00   8.9602688238E+01   8.9602688238E+01   0.0000000000E+00  0. -1
       21   -1    0    0  501  502   0.0000000000E+00   0.0000000000E+00  -4.2419208519E+02   4.2419208519E+02   0.0000000000E+00  0. -1
       25    1    1    2    0    0  -7.8626222740E+01  -1.2481650150E+02  -1.3441780475E+02   2.3548755420E+02   1.2500000000E+02  0.  0
       25    1    1    2    0    0   7.8626222740E+01   1.2481650150E+02  -2.0017159220E+02   2.7830721923E+02   1.2500000000E+02  0.  0
</event>
<event>
 4   0  0.3991300E-04  0.1230971E+04  0.7818609E-02  0.9086172E-01
       21   -1    0    0  502  501   0.0000000000E+00   0.0000000000E+00   1.0026573746E+03   1.0026573746E+03   0.0000000000E+00  0.  1
       21   -1    0    0  501  502   0.0000000000E+00   0.0000000000E+00  -3.7781815720E+02   3.7781815720E+02   0.0000000000E+00  0.  1
       25    1    1    2    0    0   1.0626122060E+02  -5.9283825001E+02   3.3617016660E+02   7.0098788762E+02   1.2500000000E+02  0.  0
       25    1    1    2    0    0  -1.0626122060E+02   5.9283825001E+02   2.8866905076E+02   6.7948764415E+02   1.2500000000E+02  0.  0
</event>
<event>
 4   0  0.3991300E-04  0.4116797E+03  0.7818609E-02  0.1039809E+00
       21   -1    0    0  502  501   0.0000000000E+00   0.0000000000E+00   2.7978536539E+03   2.7978536539E+03   0.0000000000E+00  0. -1
       21   -1    0    0  501  502   0.0000000000E+00   0.0000000000E+00  -1.5143765047E+01   1.5143765047E+01   0.0000000000E+00  0. -1
       25    1    1    2    0    0   1.5086210469E+02   6.3061805691E+01   1.4117080396E+03   1.4266326630E+03   1.2500000000E+02  0.  0
       25    1    1    2    0    0  -1.5086210469E+02  -6.3061805691E+01   1.3710018492E+03   1.3863647560E+03   1.2500000000E+02  0.  0
</event>
<event>
 4   0  0.3991300E-04  0.1140966E+04  0.7818609E-02  0.9166158E-01
       21   -1    0    0  502  501   0.0000000000E+00   0.0000000000E+00   3.3598152885E+02   3.3598152885E+02   0.0000000000E+00  0.  1
       21   -1    0    0  501  502   0.0000000000E+00   0.0000000000E+00  -9.6865712271E+02   9.6865712271E+02   0.0000000000E+00  0. -1
       25    1    1    2    0    0  -4.4948738385E+02   3.1912019129E+02  -4.0453408467E+02   6.9508951250E+02   1.2500000000E+02  0.  0
       25    1    1    2    0    0   4.4948738385E+02  -3.1912019129E+02  -2.2814150919E+02   6.0954913907E+02   1.2500000000E+02  0.  0
</event>
<event>
 4   0  0.3991300E-04  0.3981757E+03  0.7818609E-02  0.1044413E+00
       21   -1    0    0  502  501   0.0000000000E+00   0.0000000000E+00   1.3260380230E+03   1.3260380230E+03   0.0000000000E+00  0.  1
       21   -1    0    0  501  502   0.0000000000E+00   0.0000000000E+00  -2.9890522645E+01   2.9890522645E+01   0.0000000000E+00  0.  1
       25    1    1    2    0    0   9.9038723788E+01  -4.6770955689E+01   1.0213410530E+03   1.0347747279E+03   1.2500000000E+02  0.  0
       25    1    1    2    0    0  -9.9038723788E+01   4.6770955689E+01   2.7480644743E+02   3.2115381775E+02   1.2500000000E+02  0.  0
</event>
<event>
 4   0  0.3991300E-04  0.5783565E+03  0.7818609E-02  0.9951355E-01
       21   -1    0    0  502  501   0.0000000000E+00   0.0000000000E+00   6.1874380969E+03   6.1874380969E+03   0.0000000000E+00  0. -1
       21   -1    0    0  501  502   0.0000000000E+00   0.0000000000E+00  -1.3515135252E+01   1.3515135252E+01   0.0000000000E+00  0. -1
       25    1    1    2    0    0   3.7730311517E+01  -4.6826061085E+01   5.8074555288E+03   5.8091118921E+03   1.2500000000E+02  0.  0
       25    1    1    2    0    0  -3.7730311517E+01   4.6826061085E+01   3.6646743284E+02   3.9184134000E+02   1.2500000000E+02  0.  0
</event>
<event>
 4   0  0.3991300E-04  0.4562645E+03  0.7818609E-02  0.1025870E+00
       21   -1    0    0  502  501   0.0000000000E+00   0.0000000000E+00   5.3976619759E+02   5.3976619759E+02   0.0000000000E+00  0. -1
       21   -1    0    0  501  502   0.0000000000E+00   0.0000000000E+00  -9.6420125865E+01   9.6420125865E+01   0.0000000000E+00  0. -1
       25    1    1    2    0    0   1.7422544020E+02   6.0058623437E+01   2.9079870737E+02   3.6626551908E+02   1.2500000000E+02  0.  0
       25    1    1    2    0    0  -1.7422544020E+02  -6.0058623437E+01   1.5254736436E+02   2.6992080437E+02   1.2500000000E+02  0.  0
</event>
<event>
 4   0  0.3991300E-04  0.8878260E+03  0.7818609E-02  0.9440929E-01
       21   -1    0    0  502  501   0.0000000000E+00   0.0000000000E+00   1.4868283124E+02   1.4868283124E+02   0.0000000000E+00  0. -1
       21   -1    0    0  501  502   0.0000000000E+00   0.0000000000E+00  -1.3253631179E+03   1.3253631179E+03   0.0000000000E+00  0. -1
       25    1    1    2    0    0  -2.5324091033E+01  -7.1224116354E+01  -1.2843144764E+03   1.2925953963E+03   1.2500000000E+02  0.  0
       25    1    1    2    0    0   2.5324091033E+01   7.1224116354E+01   1.0763418970E+02   1.8145055285E+02   1.2500000000E+02  0.  0
</event>
<event>
 4   0  0.3991300E-04  0.4509821E+03  0.7818609E-02  0.1027430E+00
       21   -1    0    0  502  501   0.0000000000E+00   0.0000000000E+00   5.0468696411E+01   5.0468696411E+01   0.0000000000E+00  0.  1
       21   -1    0    0  501  502   0.0000000000E+00   0.0000000000E+00  -1.0074801314E+03   1.0074801314E+03   0.0000000000E+00  0.  1
       25    1    1    2    0    0  -1.2794196230E+02  -1.3095253640E+02  -5.7532814924E+02   6.1655915516E+02   1.2500000000E+02  0.  0
       25    1    1    2    0    0   1.2794196230E+02   1.3095253640E+02  -3.8168328578E+02   4.4138967268E+02   1.2500000000E+02  0.  0
</event>
<event>
 4   0  0.3991300E-04  0.6722531E+03  0.7818609E-02  0.9765896E-01
       21   -1    0    0  502  501   0.0000000000E+00   0.0000000000E+00   9.9557444352E+02   9.9557444352E+02   0.0000000000E+00  0.  1
       21   -1    0    0  501  502   0.0000000000E+00   0.0000000000E+00  -1.1348327179E+02   1.1348327179E+02   0.0000000000E+00  0. -1
       25    1    1    2    0    0  -8.4327281660E+01  -2.5074932692E+02   7.1397894013E+02   7.7160692216E+02   1.2500000000E+02  0.  0
       25    1    1    2    0    0   8.4327281660E+01   2.5074932692E+02   1.6811223159E+02   3.3745079315E+02   1.2500000000E+02  0.  0
</event>
<event>
 4   0  0.3991300E-04  0.4619066E+03  0.7818609E-02  0.1024230E+00
       21   -1    0    0  502  501   0.0000000000E+00   0.0000000000E+00   3.2265706814E+01   3.2265706814E+01   0.0000000000E+00  0. -1
       21   -1    0    0  501  502   0.0000000000E+00   0.0000000000E+00  -1.6531303287E+03   1.6531303287E+03   0.0000000000E+00  0. -1
       25    1    1    2    0    0   9.2813140077E+01  -1.6614168519E+02  -9.5161138721E+02   9.7847154828E+02   1.2500000000E+02  0.  0
       25    1    1    2    0    0  -9.2813140077E+01   1.6614168519E+02  -6.6925323472E+02   7.0692448728E+02   1.2500000000E+02  0.  0
</event>
<event>
 4   0  0.3991300E-04  0.8639001E+03  0.7818609E-02  0.9471868E-01
       21   -1    0    0  502  501   0.0000000000E+00   0.0000000000E+00   8.9968004071E+03   8.9968004071E+03   0.0000000000E+00  0.  1
       21   -1    0    0  501  502   0.0000000000E+00   0.0000000000E+00  -2.0738577773E+01   2.0738577773E+01   0.0000000000E+00  0.  1
       25    1    1    2    0    0  -2.6066179357E+02  -2.6654500902E+02   2.6218141768E+03   2.6511366223E+03   1.2500000000E+02  0.  0
       25    1    1    2    0    0   2.6066179357E+02   2.6654500902E+02   6.3542476526E+03   6.3664023626E+03   1.2500000000E+02  0.  0
</event>
<event>
 4   0  0.3991300E-04  0.1212978E+04  0.7818609E-02  0.9101573E-01
       21   -1    0    0  502  501   0.0000000000E+00   0.0000000000E+00   1.4107278901E+02   1.4107278901E+02   0.0000000000E+00  0. -1
       21   -1    0    0  501  502   0.0000000000E+00   0.0000000000E+00  -2.6073677577E+03   2.6073677577E+03   0.0000000000E+00  0.  1
       25    1    1    2    0    0  -2.0799086543E+02  -5.0873491701E+02  -7.2581569907E+02   9.1896944721E+02   1.2500000000E+02  0.  0
       25    1    1    2    0    0   2.0799086543E+02   5.0873491701E+02  -1.7404792696E+03   1.8294710995E+03   1.2500000000E+02  0.  0
</event>
<event>
 4   0  0.3991300E-04  0.2811860E+03  0.7818609E-02  0.1095043E+00
       21   -1    0    0  502  501   0.0000000000E+00   0.0000000000E+00   3.7423970463E+03   3.7423970463E+03   0.0000000000E+00  0. -1
       21   -1    0    0  501  502   0.0000000000E+00   0.0000000000E+00  -5.2817464781E+00   5.2817464781E+00   0.0000000000E+00  0. -1
       25    1    1    2    0    0  -8.3904171328E+00   5.2365340256E+01   1.3827000482E+03   1.3893512699E+03   1.2500000000E+02  0.  0
       25    1    1    2    0    0   8.3904171328E+00  -5.2365340256E+01   2.3544152517E+03   2.3583275229E+03   1.2500000000E+02  0.  0
</event>
<event>
 4   0  0.3991300E-04  0.6904514E+03  0.7818609E-02  0.9733702E-01
       21   -1    0    0  502  501   0.0000000000E+00   0.0000000000E+00   2.6350665620E+02   2.6350665620E+02   0.0000000000E+00  0.  1
       21   -1    0    0  501  502   0.0000000000E+00   0.0000000000E+00  -4.5228762126E+02   4.5228762126E+02   0.0000000000E+00  0.  1
       25    1    1    2    0    0  -1.1376837207E+02  -7.6955235311E+01  -3.9608838838E+02   4.3746584110E+02   1.2500000000E+02  0.  0
       25    1    1    2    0    0   1.1376837207E+02   7.6955235311E+01   2.0730742332E+02   2.7832843636E+02   1.2500000000E+02  0.  0
</event>
<event>
 4   0  0.3991300E-04  0.3685761E+03  0.7818609E-02  0.1055239E+00
       21   -1    0    0  502  501   0.0000000000E+00   0.0000000000E+00   3.9194649733E+01   3.9194649733E+01   0.0000000000E+00  0.  1
       21   -1    0    0  501  502   0.0000000000E+00   0.0000000000E+00  -8.6649801141E+02   8.6649801141E+02   0.0000000000E+00  0.  1
       25    1    1    2    0    0   8.9018748210E+01   9.6103836656E+01  -3.2935602256E+02   3.7584661040E+02   1.2500000000E+02  0.  0
       25    1    1    2    0    0  -8.9018748210E+01  -9.6103836656E+01  -4.9794733912E+02   5.2984605074E+02   1.2500000000E+02  0.  0
</event>
<event>
 4   0  0.3991300E-04  0.3242880E+03  0.7818609E-02  0.1073693E+00
       21   -1    0    0  502  501   0.0000000000E+00   0.0000000000E+00   6.8737887315E+01   6.8737887315E+01   0.0000000000E+00  0. -1
       21   -1    0    0  501  502   0.0000000000E+00   0.0000000000E+00  -3.8247718656E+02   3.8247718656E+02   0.0000000000E+00  0. -1
       25    1    1    2    0    0  -3.6879243723E+01   8.5587374602E+01  -9.4949953708E+01   1.8255347441E+02   1.2500000000E+02  0.  0
       25    1    1    2    0    0   3.6879243723E+01  -8.5587374602E+01  -2.1878934554E+02   2.6866159947E+02   1.2500000000E+02  0.  0
</event>
<event>
 4   0  0.3991300E-04  0.4518200E+03  0.7818609E-02  0.1027181E+00
       21   -1    0    0  502  501   0.0000000000E+00   0.0000000000E+00   9.2443737867E+02   9.2443737867E+02   0.0000000000E+00  0. -1
       21   -1    0    0  501  502   0.0000000000E+00   0.0000000000E+00  -5.5206913343E+01   5.5206913343E+01   0.0000000000E+00  0. -1
       25    1    1    2    0    0  -3.8202953888E+01  -1.2707190638E+02   1.4530963345E+02   2.3312362525E+02   1.2500000000E+02  0.  0
       25    1    1    2    0    0   3.8202953888E+01   1.2707190638E+02   7.2392083187E+02   7.4652066676E+02   1.2500000000E+02  0.  0
</event>
<event>
 4   0  0.3991300E-04  0.9804347E+03  0.7818609E-02  0.9330268E-01
       21   -1    0    0  502  501   0.0000000000E+00   0.0000000000E+00   3.3973072843E+03   3.3973072843E+03   0.0000000000E+00  0. -1
       21   -1    0    0  501  502   0.0000000000E+00   0.0000000000E+00  -7.0736334703E+01   7.0736334703E+01   0.0000000000E+00  0.  1
       25    1    1    2    0    0   1.4465674356E+02   4.3174665877E+02   2.1293082355E+03   2.1810340008E+03   1.2500000000E+02  0.  0
       25    1    1    2    0    0  -1.4465674356E+02  -4.3174665877E+02   1.1972627141E+03   1.2870096182E+03   1.2500000000E+02  0.  0
</event>
<event>
 4   0  0.3991300E-04  0.3038504E+03  0.7818609E-02  0.1083332E+00
       21   -1    0    0  502  501   0.0000000000E+00   0.0000000000E+00   6.9284567598E+01   6.9284567598E+01   0.0000000000E+00  0. -1
       21   -1    0    0  501  502   0.0000000000E+00   0.0000000000E+00  -3.3313721896E+02   3.3313721896E+02   0.0000000000E+00  0. -1
       25    1    1    2    0    0   7.1360061558E+01   4.6971628178E+01  -1.1529586221E+02   1.9030693125E+02   1.2500000000E+02  0.  0
       25    1    1    2    0    0  -7.1360061558E+01  -4.6971628178E+01  -1.4855678916E+02   2.1211485531E+02   1.2500000000E+02  0.  0
</event>
<event>
 4   0  0.3991300E-04  0.6993558E+03  0.7818609E-02  0.9718334E-01
       21   -1    0    0  502  501   0.0000000000E+00   0.0000000000E+00   3.2542615442E+02   3.2542615442E+02   0.0000000000E+00  0. -1
       21   -1    0    0  501  502   0.0000000000E+00   0.0000000000E+00  -3.7573695896E+02   3.7573695896E+02   0.0000000000E+00  0. -1
       25    1    1    2    0    0   9.6164634012E+01   7.5821765928E+01  -3.2868032453E+02   3.7236048764E+02   1.2500000000E+02  0.  0
       25    1    1    2    0    0  -9.6164634012E+01  -7.5821765928E+01   2.7836951999E+02   3.2880262573E+02   1.2500000000E+02  0.  0
</event>
<event>
 4   0  0.3991300E-04  0.5943178E+03  0.7818609E-02  0.9917265E-01
       21   -1    0    0  502  501   0.0000000000E+00   0.0000000000E+00   1.3376158390E+02   1.3376158390E+02   0.0000000000E+00  0.  1
       21   -1    0    0  501  502   0.0000000000E+00   0.0000000000E+00  -6.6015530903E+02   6.6015530903E+02   0.0000000000E+00  0.  1
       25    1    1    2    0    0   1.8053639274E+02   1.9533396157E+02  -3.2187796593E+02   4.3586600073E+02   1.2500000000E+02  0.  0
       25    1    1    2    0    0  -1.8053639274E+02  -1.9533396157E+02  -2.0451575920E+02   3.5805089220E+02   1.2500000000E+02  0.  0
</event>
<event>
 4   0  0.3991300E-04  0.4695757E+03  0.7818609E-02  0.1022040E+00
       21   -1    0    0  502  501   0.0000000000E+00   0.0000000000E+00   3.2035582471E+01   3.2035582471E+01   0.0000000000E+00  0. -1
       21   -1    0    0  501  502   0.0000000000E+00   0.0000000000E+00  -1.7207532601E+03   1.7207532601E+03   0.0000000000E+00  0. -1
       25    1    1    2    0    0  -8.6881862146E+01  -1.6666429135E+02  -6.0317596941E+02   6.4402771218E+02   1.2500000000E+02  0.  0
       25    1    1    2    0    0   8.6881862146E+01   1.6666429135E+02  -1.0855417082E+03   1.1087611304E+03   1.2500000000E+02  0.  0
</event>
<event>
 4   0  0.3991300E-04  0.5095259E+03  0.7818609E-02  0.1011322E+00
       21   -1    0    0  502  501   0.0000000000E+00   0.0000000000E+00   2.0071326373E+03   2.0071326373E+03   0.0000000000E+00  0.  1
       21   -1    0    0  501  502   0.0000000000E+00   0.0000000000E+00  -3.2336755889E+01   3.2336755889E+01   0.0000000000E+00  0.  1
       25    1    1    2    0    0   9.6524338384E+01  -8.1133376490E+01   1.7186909222E+03   1.7278376829E+03   1.2500000000E+02  0.  0
       25    1    1    2    0    0  -9.6524338384E+01   8.1133376490E+01   2.5610495928E+02   3.1163171028E+02   1.2500000000E+02  0.  0
</event>
<event>
 4   0  0.3991300E-04  0.4767686E+03  0.7818609E-02  0.1020027E+00
       21   -1    0    0  502  501   0.0000000000E+00   0.0000000000E+00   2.7284956584E+02   2.7284956584E+02   0.0000000000E+00  0.  1
       21   -1    0    0  501  502   0.0000000000E+00   0.0000000000E+00  -2.0827256619E+02   2.0827256619E+02   0.0000000000E+00  0.  1
       25    1    1    2    0    0  -6.8827381670E+00  -1.9962427656E+02  -4.1641298331E+00   2.3566833443E+02   1.2500000000E+02  0.  0
       25    1    1    2    0    0   6.8827381670E+00   1.9962427656E+02   6.8741129475E+01   2.4545379760E+02   1.2500000000E+02  0.  0
</event>
<event>
 4   0  0.3991300E-04  0.3539339E+03  0.7818609E-02  0.1061012E+00
       21   -1    0    0  502  501   0.0000000000E+00   0.0000000000E+00   1.8113452880E+01   1.8113452880E+01   0.0000000000E+00  0. -1
       21   -1    0    0  501  502   0.0000000000E+00   0.0000000000E+00  -1.7289524404E+03   1.7289524404E+03   0.0000000000E+00  0. -1
       25    1    1    2    0    0   2.2281008358E+01  -9.9724825376E+01  -4.9773469911E+02   5.2326505217E+02   1.2500000000E+02  0.  0
       25    1    1    2    0    0  -2.2281008358E+01   9.9724825376E+01  -1.2131042884E+03   1.2238008411E+03   1.2500000000E+02  0.  0
</event>
<event>
 4   0  0.3991300E-04  0.4732812E+03  0.7818609E-02  0.1020998E+00
       21   -1    0    0  502  501   0.0000000000E+00   0.0000000000E+00   2.1653688456E+03   2.1653688456E+03   0.0000000000E+00  0. -1
       21   -1    0    0  501  502   0.0000000000E+00   0.0000000000E+00  -2.5861080145E+01   2.5861080145E+01   0.0000000000E+00  0. -1
       25    1    1    2    0    0   1.3201224668E+02  -7.3340162004E+01   1.6834126378E+03   1.6947888133E+03   1.2500000000E+02  0.  0
       25    1    1    2    0    0  -1.3201224668E+02   7.3340162004E+01   4.5609512763E+02   4.9644111240E+02   1.2500000000E+02  0.  0
</event>
<event>
 4   0  0.3991300E-04  0.5678509E+03  0.7818609E-02  0.9974446E-01
       21   -1    0    0  502  501   0.0000000000E+00   0.0000000000E+00   2.4240442629E+02   2.4240442629E+02   0.0000000000E+00  0. -1
       21   -1    0    0  501  502   0.0000000000E+00   0.0000000000E+00  -3.3255851067E+02   3.3255851067E+02   0.0000000000E+00  0. -1
       25    1    1    2    0    0  -4.2087446718E+01   1.9532989124E+02   1.1522044492E+02   2.6234685153E+02   1.2500000000E+02  0.  0
       25    1    1    2    0    0   4.2087446718E+01  -1.9532989124E+02  -2.0537452930E+02   3.1261608543E+02   1.2500000000E+02  0.  0
</event>
<event>
 4   0  0.3991300E-04  0.6776067E+03  0.7818609E-02  0.9756313E-01
       21   -1    0    0  502  501   0.0000000000E+00   0.0000000000E+00   7.9091862970E+01   7.9091862970E+01   0.0000000000E+00  0. -1
       21   -1    0    0  501  502   0.0000000000E+00   0.0000000000E+00  -1.4513213315E+03   1.4513213315E+03   0.0000000000E+00  0. -1
       25    1    1    2    0    0   1.6712234807E+02  -1.6596909452E+02  -2.1404347113E+02   3.4192868715E+02   1.2500000000E+02  0.  0
       25    1    1    2    0    0  -1.6712234807E+02   1.6596909452E+02  -1.1581859974E+03   1.1884845073E+03   1.2500000000E+02  0.  0
</event>
<event>
 4   0  0.3991300E-04  0.1608230E+04  0.7818609E-02  0.8815508E-01
       21   -1    0    0  502  501   0.0000000000E+00   0.0000000000E+00   1.8062726256E+02   1.8062726256E+02   0.0000000000E+00  0.  1
       21   -1    0    0  501  502   0.0000000000E+00   0.0000000000E+00  -3.5797514614E+03   3.5797514614E+03   0.0000000000E+00  0.  1
       25    1    1    2    0    0   5.4017974960E+02   3.9119681663E+02  -2.7083759884E+03   2.7920878578E+03   1.2500000000E+02  0.  0
       25    1    1    2    0    0  -5.4017974960E+02  -3.9119681663E+02  -6.9074821043E+02   9.6829086613E+02   1.2500000000E+02  0.  0
</event>
<event>
 4   0  0.3991300E-04  0.4168094E+03  0.7818609E-02  0.1038110E+00
       21   -1    0    0  502  501   0.0000000000E+00   0.0000000000E+00   1.9974973725E+02   1.9974973725E+02   0.0000000000E+00  0. -1
       21   -1    0    0  501  502   0.0000000000E+00   0.0000000000E+00  -2.1743464523E+02   2.1743464523E+02   0.0000000000E+00  0. -1
       25    1    1    2    0    0  -7.1867348907E+00  -1.3199540477E+02  -1.1058565644E+02   2.1290519827E+02   1.2500000000E+02  0.  0
       25    1    1    2    0    0   7.1867348907E+00   1.3199540477E+02   9.2900748451E+01   2.0427918421E+02   1.2500000000E+02  0.  0
</event>
<event>
 4   0  0.3991300E-04  0.4128421E+03  0.7818609E-02  0.1039421E+00
       21   -1    0    0  502  501   0.0000000000E+00   0.0000000000E+00   1.1582845270E+03   1.1582845270E+03   0.0000000000E+00  0.  1
       21   -1    0    0  501  502   0.0000000000E+00   0.0000000000E+00  -3.6786850613E+01   3.6786850613E+01   0.0000000000E+00  0.  1
       25    1    1    2    0    0  -7.4917658469E+01  -2.1011561910E+00   9.8389214891E+02   9.9462848898E+02   1.2500000000E+02  0.  0
       25    1    1    2    0    0   7.4917658469E+01   2.1011561910E+00   1.3760552745E+02   2.0044288861E+02   1.2500000000E+02  0.  0
</event>
<event>
 4   0  0.3991300E-04  0.6080559E+03  0.7818609E-02  0.9888832E-01
       21   -1    0    0  502  501   0.0000000000E+00   0.0000000000E+00   5.5212432217E+02   5.5212432217E+02   0.0000000000E+00  0.  1
       21   -1    0    0  501  502   0.0000000000E+00   0.0000000000E+00  -1.6741335065E+02   1.6741335065E+02   0.0000000000E+00  0.  1
       25    1    1    2    0    0  -2.4524194163E+02   9.0091050197E+01   8.2949346772E+01   3.0127330016E+02   1.2500000000E+02  0.  0
       25    1    1    2    0    0   2.4524194163E+02  -9.0091050197E+01   3.0176162476E+02   4.1826437266E+02   1.2500000000E+02  0.  0
</event>
<event>
 4   0  0.3991300E-04  0.4403246E+03  0.7818609E-02  0.1030647E+00
       21   -1    0    0  502  501   0.0000000000E+00   0.0000000000E+00   2.9592162258E+02   2.9592162258E+02   0.0000000000E+00  0.  1
       21   -1    0    0  501  502   0.0000000000E+00   0.0000000000E+00  -1.6379824058E+02   1.6379824058E+02   0.0000000000E+00  0.  1
       25    1    1    2    0    0  -1.6616746101E+02   5.0644796639E+01   1.2114419973E+01   2.1435549840E+02   1.2500000000E+02  0.  0
       25    1    1    2    0    0   1.6616746101E+02  -5.0644796639E+01   1.2000896202E+02   2.4536436475E+02   1.2500000000E+02  0.  0
</event>
<event>
 4   0  0.3991300E-04  0.4159726E+03  0.7818609E-02  0.1038385E+00
       21   -1    0    0  502  501   0.0000000000E+00   0.0000000000E+00   4.0238970358E+01   4.0238970358E+01   0.0000000000E+00  0. -1
       21   -1    0    0  501  502   0.0000000000E+00   0.0000000000E+00  -1.0750348807E+03   1.0750348807E+03   0.0000000000E+00  0. -1
       25    1    1    2    0    0  -1.7950538394E+01  -9.7618898069E+01  -1.5987613921E+02   2.2591381317E+02   1.2500000000E+02  0.  0
       25    1    1    2    0    0   1.7950538394E+01   9.7618898069E+01  -8.7491977110E+02   8.8936003787E+02   1.2500000000E+02  0.  0
</event>
<event>
 4   0  0.3991300E-04  0.3918770E+03  0.7818609E-02  0.1046629E+00
       21   -1    0    0  502  501   0.0000000000E+00   0.0000000000E+00   8.1026855305E+00   8.1026855305E+00   0.0000000000E+00  0.  1
       21   -1    0    0  501  502   0.0000000000E+00   0.0000000000E+00  -4.7381689263E+03   4.7381689263E+03   0.0000000000E+00  0.  1
       25    1    1    2    0    0   8.6187850724E+01  -5.9100017051E+01  -3.6832408062E+03   3.6868426864E+03   1.2500000000E+02  0.  0
       25    1    1    2    0    0  -8.6187850724E+01   5.9100017051E+01  -1.0468254346E+03   1.0594289255E+03   1.2500000000E+02  0.  0
</event>
<event>
 4   0  0.3991300E-04  0.5410109E+03  0.7818609E-02  0.1003596E+00
       21   -1    0    0  502  501   0.0000000000E+00   0.0000000000E+00   2.1904957760E+02   2.1904957760E+02   0.0000000000E+00  0.  1
       21   -1    0    0  501  502   0.0000000000E+00   0.0000000000E+00  -3.3404857944E+02   3.3404857944E+02   0.0000000000E+00  0.  1
       25    1    1    2    0    0  -7.9623713453E+01  -1.7600819067E+02   8.7908227962E+01   2.4631621032E+02   1.2500000000E+02  0.  0
       25    1    1    2    0    0   7.9623713453E+01   1.7600819067E+02  -2.0290722980E+02   3.0678194671E+02   1.2500000000E+02  0.  0
</event>
<event>
 4   0  0.3991300E-04  0.6949465E+03  0.7818609E-02  0.9725914E-01
       21   -1    0    0  502  501   0.0000000000E+00   0.0000000000E+00   1.2299448322E+02   1.2299448322E+02   0.0000000000E+00  0. -1
       21   -1    0    0  501  502   0.0000000000E+00   0.0000000000E+00  -9.8165112192E+02   9.8165112192E+02   0.0000000000E+00  0. -1
       25    1    1    2    0    0  -2.4130172953E+02  -1.9339032481E+02  -2.7451059174E+02   4.3198079515E+02   1.2500000000E+02  0.  0
       25    1    1    2    0    0   2.4130172953E+02   1.9339032481E+02  -5.8414604697E+02   6.7266480998E+02   1.2500000000E+02  0.  0
</event>
<event>
 4   0  0.3991300E-04  0.3731607E+03  0.7818609E-02  0.1053491E+00
       21   -1    0    0  502  501   0.0000000000E+00   0.0000000000E+00   1.7720796491E+01   1.7720796491E+01   0.0000000000E+00  0.  1
       21   -1    0    0  501  502   0.0000000000E+00   0.0000000000E+00  -1.9644845301E+03   1.9644845301E+03   0.0000000000E+00  0.  1
       25    1    1    2    0    0   3.3767277754E+01  -5.0439647687E+01  -3.1199068775E+02   3.4153707903E+02   1.2500000000E+02  0.  0
       25    1    1    2    0    0  -3.3767277754E+01   5.0439647687E+01  -1.6347730458E+03   1.6406682475E+03   1.2500000000E+02  0.  0
</event>
<event>
 4   0  0.3991300E-04  0.3828224E+03  0.7818609E-02  0.1049895E+00
       21   -1    0    0  502  501   0.0000000000E+00   0.0000000000E+00   1.8652822403E+02   1.8652822403E+02   0.0000000000E+00  0.  1
       21   -1    0    0  501  502   0.0000000000E+00   0.0000000000E+00  -1.9642203658E+02   1.9642203658E+02   0.0000000000E+00  0.  1
       25    1    1    2    0    0   5.4123190507E+01   2.1178285158E+01  -1.3778964562E+02   1.9490722396E+02   1.2500000000E+02  0.  0
       25    1    1    2    0    0  -5.4123190507E+01  -2.1178285158E+01   1.2789583307E+02   1.8804303665E+02   1.2500000000E+02  0.  0
</event>
<event>
 4   0  0.3991300E-04  0.1187283E+04  0.7818609E-02  0.9124061E-01
       21   -1    0    0  502  501   0.0000000000E+00   0.0000000000E+00   1.9280791741E+03   1.9280791741E+03   0.0000000000E+00  0.  1
       21   -1    0    0  501  502   0.0000000000E+00   0.0000000000E+00  -1.8277789866E+02   1.8277789866E+02   0.0000000000E+00  0. -1
       25    1    1    2    0    0  -2.0418501186E+02   5.4242296709E+02   8.2017835092E+02   1.0120433398E+03   1.2500000000E+02  0.  0
       25    1    1    2    0    0   2.0418501186E+02  -5.4242296709E+02   9.2512292452E+02   1.0988137330E+03   1.2500000000E+02  0.  0
</event>
<event>
 4   0  0.3991300E-04  0.2688646E+03  0.7818609E-02  0.1101931E+00
       21   -1    0    0  502  501   0.0000000000E+00   0.0000000000E+00   1.4641789083E+02   1.4641789083E+02   0.0000000000E+00  0. -1
       21   -1    0    0  501  502   0.0000000000E+00   0.0000000000E+00  -1.2342779245E+02   1.2342779245E+02   0.0000000000E+00  0. -1
       25    1    1    2    0    0  -1.2699952534E+01  -1.3771690905E+01   5.7445180999E+01   1.3883766450E+02   1.2500000000E+02  0.  0
       25    1    1    2    0    0   1.2699952534E+01   1.3771690905E+01  -3.4455082615E+01   1.3100801877E+02   1.2500000000E+02  0.  0
</event>
<event>
 4   0  0.3991300E-04  0.5017244E+03  0.7818609E-02  0.1013330E+00
       21   -1    0    0  502  501   0.0000000000E+00   0.0000000000E+00   1.3377624750E+03   1.3377624750E+03   0.0000000000E+00  0.  1
       21   -1    0    0  501  502   0.0000000000E+00   0.0000000000E+00  -4.7042615542E+01   4.7042615542E+01   0.0000000000E+00  0.  1
       25    1    1    2    0    0   9.4653619600E+01   1.8745344376E+01   1.1833734856E+03   1.1938628490E+03   1.2500000000E+02  0.  0
       25    1    1    2    0    0  -9.4653619600E+01  -1.8745344376E+01   1.0734637379E+02   1.9094224154E+02   1.2500000000E+02  0.  0
</event>
<event>
 4   0  0.3991300E-04  0.3622731E+03  0.7818609E-02  0.1057687E+00
       21   -1    0    0  502  501   0.0000000000E+00   0.0000000000E+00   2.3057331510E+02   2.3057331510E+02   0.0000000000E+00  0. -1
       21   -1    0    0  501  502   0.0000000000E+00   0.0000000000E+00  -1.4229945615E+02   1.4229945615E+02   0.0000000000E+00  0. -1
       25    1    1    2    0    0   8.5322464419E+01   5.8587245334E+01  -3.8672473603E+01   1.6683209663E+02   1.2500000000E+02  0.  0
       25    1    1    2    0    0  -8.5322464419E+01  -5.8587245334E+01   1.2694633256E+02   2.0604067463E+02   1.2500000000E+02  0.  0
</event>
<event>
 4   0  0.3991300E-04  0.5147753E+03  0.7818609E-02  0.1009993E+00
       21   -1    0    0  502  501   0.0000000000E+00   0.0000000000E+00   1.3761098757E+03   1.3761098757E+03   0.0000000000E+00  0. -1
       21   -1    0    0  501  502   0.0000000000E+00   0.0000000000E+00  -4.8141805115E+01   4.8141805115E+01   0.0000000000E+00  0. -1
       25    1    1    2    0    0  -2.2212655526E+02   3.1366611933E+01   6.1611515864E+02   6.6749304087E+02   1.2500000000E+02  0.  0
       25    1    1    2    0    0   2.2212655526E+02  -3.1366611933E+01   7.1185291193E+02   7.5675863994E+02   1.2500000000E+02  0.  0
</event>
<event>
 4   0  0.3991300E-04  0.3683486E+03  0.7818609E-02  0.1055326E+00
       21   -1    0    0  502  501   0.0000000000E+00   0.0000000000E+00   4.3159135269E+01   4.3159135269E+01   0.0000000000E+00  0.  1
       21   -1    0    0  501  502   0.0000000000E+00   0.0000000000E+00  -7.8593246194E+02   7.8593246194E+02   0.0000000000E+00  0.  1
       25    1    1    2    0    0  -1.2328868682E+02  -2.1027019802E+01  -4.8731948281E+02   5.1840863629E+02   1.2500000000E+02  0.  0
       25    1    1    2    0    0   1.2328868682E+02   2.1027019802E+01  -2.5545384386E+02   3.1068296091E+02   1.2500000000E+02  0.  0
</event>
<event>
 4   0  0.3991300E-04  0.3905852E+03  0.7818609E-02  0.1047089E+00
       21   -1    0    0  502  501   0.0000000000E+00   0.0000000000E+00   1.0742591310E+02   1.0742591310E+02   0.0000000000E+00  0. -1
       21   -1    0    0  501  502   0.0000000000E+00   0.0000000000E+00  -3.5502801023E+02   3.5502801023E+02   0.0000000000E+00  0. -1
       25    1    1    2    0    0  -1.1335402829E+02   3.4849458752E+01  -2.3264294302E+02   2.8950191613E+02   1.2500000000E+02  0.  0
       25    1    1    2    0    0   1.1335402829E+02  -3.4849458752E+01  -1.4959154110E+01   1.7295200721E+02   1.2500000000E+02  0.  0
</event>
<event>
 4   0  0.3991300E-04  0.6360965E+03  0.7818609E-02  0.9833224E-01
       21   -1    0    0  502  501   0.0000000000E+00   0.0000000000E+00   1.1006100408E+01   1.1006100408E+01   0.0000000000E+00  0.  1
       21   -1    0    0  501  502   0.0000000000E+00   0.0000000000E+00  -9.1907834997E+03   9.1907834997E+03   0.0000000000E+00  0.  1
       25    1    1    2    0    0   1.3383640802E+02  -7.0689911955E+01  -9.6989886166E+02   9.8956457577E+02   1.2500000000E+02  0.  0
       25    1    1    2    0    0  -1.3383640802E+02   7.0689911955E+01  -8.2098785377E+03   8.2122250244E+03   1.2500000000E+02  0.  0
</event>
<event>
 4   0  0.3991300E-04  0.4826452E+03  0.7818609E-02  0.1018411E+00
       21   -1    0    0  502  501   0.0000000000E+00   0.0000000000E+00   2.0962982624E+03   2.0962982624E+03   0.0000000000E+00  0. -1
       21   -1    0    0  501  502   0.0000000000E+00   0.0000000000E+00  -2.7780688427E+01   2.7780688427E+01   0.0000000000E+00  0. -1
       25    1    1    2    0    0  -1.7370646534E+02   8.6802588718E+01   1.3424163497E+03   1.3621362933E+03   1.2500000000E+02  0.  0
       25    1    1    2    0    0   1.7370646534E+02  -8.6802588718E+01   7.2610122426E+02   7.6194265755E+02   1.2500000000E+02  0.  0
</event>
<event>
 4   0  0.3991300E-04  0.4460055E+03  0.7818609E-02  0.1028920E+00
       21   -1    0    0  502  501   0.0000000000E+00   0.0000000000E+00   2.2557289865E+02   2.2557289865E+02   0.0000000000E+00  0. -1
       21   -1    0    0  501  502   0.0000000000E+00   0.0000000000E+00  -2.2046192771E+02   2.2046192771E+02   0.0000000000E+00  0. -1
       25    1    1    2    0    0  -1.3544403783E+02  -3.4344009147E+01   1.2331372510E+02   2.2440114337E+02   1.2500000000E+02  0.  0
       25    1    1    2    0    0   1.3544403783E+02   3.4344009147E+01  -1.1820275415E+02   2.2163368299E+02   1.2500000000E+02  0.  0
</event>
<event>
 4   0  0.3991300E-04  0.4818045E+03  0.7818609E-02  0.1018640E+00
       21   -1    0    0  502  501   0.0000000000E+00   0.0000000000E+00   4.5344841921E+01   4.5344841921E+01   0.0000000000E+00  0.  1
       21   -1    0    0  501  502   0.0000000000E+00   0.0000000000E+00  -1.2798346675E+03   1.2798346675E+03   0.0000000000E+00  0.  1
       25    1    1    2    0    0   1.9457903084E+02   3.1168539407E+01  -4.5275915090E+02   5.0936070306E+02   1.2500000000E+02  0.  0
       25    1    1    2    0    0  -1.9457903084E+02  -3.1168539407E+01  -7.8173067467E+02   8.1581880636E+02   1.2500000000E+02  0.  0
</event>
<event>
 4   0  0.3991300E-04  0.5599138E+03  0.7818609E-02  0.9992250E-01
       21   -1    0    0  502  501   0.0000000000E+00   0.0000000000E+00   7.2296836797E+02   7.2296836797E+02   0.0000000000E+00  0. -1
       21   -1    0    0  501  502   0.0000000000E+00   0.0000000000E+00  -1.0840844129E+02   1.0840844129E+02   0.0000000000E+00  0. -1
       25    1    1    2    0    0  -1.0507182455E+02  -9.4501061718E+00   6.4463868512E+02   6.6506648328E+02   1.2500000000E+02  0.  0
       25    1    1    2    0    0   1.0507182455E+02   9.4501061718E+00  -3.0078758434E+01   1.6631032598E+02   1.2500000000E+02  0.  0
</event>
<event>
 4   0  0.3991300E-04  0.5606866E+03  0.7818609E-02  0.9990502E-01
       21   -1    0    0  502  501   0.0000000000E+00   0.0000000000E+00   1.6976952570E+03   1.6976952570E+03   0.0000000000E+00  0. -1
       21   -1    0    0  501  502   0.0000000000E+00   0.0000000000E+00  -4.6293566834E+01   4.6293566834E+01   0.0000000000E+00  0. -1
       25    1    1    2    0    0   9.0248320199E+01  -1.7742402062E+02   1.3009319781E+03   1.3219958601E+03   1.2500000000E+02  0.  0
       25    1    1    2    0    0  -9.0248320199E+01   1.7742402062E+02   3.5046971207E+02   4.2199296377E+02   1.2500000000E+02  0.  0
</event>
<event>
 4   0  0.3991300E-04  0.4006689E+03  0.7818609E-02  0.1043548E+00
       21   -1    0    0  502  501   0.0000000000E+00   0.0000000000E+00   4.2654999650E+02   4.2654999650E+02   0.0000000000E+00  0. -1
       21   -1    0    0  501  502   0.0000000000E+00   0.0000000000E+00  -9.4089527421E+01   9.4089527421E+01   0.0000000000E+00  0. -1
       25    1    1    2    0    0  -9.6121499103E+01  -3.5123158361E+01   1.2283035533E+01   1.6201497401E+02   1.2500000000E+02  0.  0
       25    1    1    2    0    0   9.6121499103E+01   3.5123158361E+01   3.2017743355E+02   3.5862454991E+02   1.2500000000E+02  0.  0
</event>
<event>
 4   0  0.3991300E-04  0.3159605E+03  0.7818609E-02  0.1077524E+00
       21   -1    0    0  502  501   0.0000000000E+00   0.0000000000E+00   4.2650353178E+03   4.2650353178E+03   0.0000000000E+00  0.  1
       21   -1    0    0  501  502   0.0000000000E+00   0.0000000000E+00  -5.8517129771E+00   5.8517129771E+00   0.0000000000E+00  0.  1
       25    1    1    2    0    0   3.8823862272E+01   2.4708754720E+01   9.8143327059E+02   9.9043125933E+02   1.2500000000E+02  0.  0
       25    1    1    2    0    0  -3.8823862272E+01  -2.4708754720E+01   3.2777503342E+03   3.2804557714E+03   1.2500000000E+02  0.  0
</event>
<event>
 4   0  0.3991300E-04  0.1381695E+04  0.7818609E-02  0.8967176E-01
       21   -1    0    0  502  501   0.0000000000E+00   0.0000000000E+00   1.6286426210E+04   1.6286426210E+04   0.0000000000E+00  0. -1
       21   -1    0    0  501  502   0.0000000000E+00   0.0000000000E+00  -2.9304782870E+01   2.9304782870E+01   0.0000000000E+00  0.  1
       25    1    1    2    0    0   5.9361851109E+02  -2.8141768559E+02   1.0176111218E+04   1.0198060765E+04   1.2500000000E+02  0.  0
       25    1    1    2    0    0  -5.9361851109E+02   2.8141768559E+02   6.0810102095E+03   6.1176702280E+03   1.2500000000E+02  0.  0
</event>
<event>
 4   0  0.3991300E-04  0.4576635E+03  0.7818609E-02  0.1025461E+00
       21   -1    0    0  502  501   0.0000000000E+00   0.0000000000E+00   5.1659258076E+02   5.1659258076E+02   0.0000000000E+00  0.  1
       21   -1    0    0  501  502   0.0000000000E+00   0.0000000000E+00  -1.0136414643E+02   1.0136414643E+02   0.0000000000E+00  0.  1
       25    1    1    2    0    0   7.1107603617E+01   1.6253269739E+02   1.0963276801E+02   2.4314093205E+02   1.2500000000E+02  0.  0
       25    1    1    2    0    0  -7.1107603617E+01  -1.6253269739E+02   3.0559566632E+02   3.7481579514E+02   1.2500000000E+02  0.  0
</event>
<event>
 4   0  0.3991300E-04  0.4657274E+03  0.7818609E-02  0.1023133E+00
       21   -1    0    0  502  501   0.0000000000E+00   0.0000000000E+00   6.4023315437E+01   6.4023315437E+01   0.0000000000E+00  0. -1
       21   -1    0    0  501  502   0.0000000000E+00   0.0000000000E+00  -8.4696480686E+02   8.4696480686E+02   0.0000000000E+00  0. -1
       25    1    1    2    0    0   1.1218730520E+02   6.8381920828E+01  -1.0573666099E+02   2.0992217611E+02   1.2500000000E+02  0.  0
       25    1    1    2    0    0  -1.1218730520E+02  -6.8381920828E+01  -6.7720483043E+02   7.0106594619E+02   1.2500000000E+02  0.  0
</event>
<event>
 4   0  0.3991300E-04  0.4521978E+03  0.7818609E-02  0.1027069E+00
       21   -1    0    0  502  501   0.0000000000E+00   0.0000000000E+00   2.0239640127E+02   2.0239640127E+02   0.0000000000E+00  0. -1
       21   -1    0    0  501  502   0.0000000000E+00   0.0000000000E+00  -2.5257715175E+02   2.5257715175E+02   0.0000000000E+00  0. -1
       25    1    1    2    0    0   1.3218344989E+00   9.1486460867E+01  -1.9079555956E+02   2.4576302675E+02   1.2500000000E+02  0.  0
       25    1    1    2    0    0  -1.3218344989E+00  -9.1486460867E+01   1.4061480908E+02   2.0921052627E+02   1.2500000000E+02  0.  0
</event>
<event>
 4   0  0.3991300E-04  0.6027466E+03  0.7818609E-02  0.9899724E-01
       21   -1    0    0  502  501   0.0000000000E+00   0.0000000000E+00   2.5387737850E+01   2.5387737850E+01   0.0000000000E+00  0.  1
       21   -1    0    0  501  502   0.0000000000E+00   0.0000000000E+00  -3.5775489553E+03   3.5775489553E+03   0.0000000000E+00  0.  1
       25    1    1    2    0    0  -1.3785824177E+02  -5.4043669512E+01  -3.9638069440E+02   4.4121227083E+02   1.2500000000E+02  0.  0
       25    1    1    2    0    0   1.3785824177E+02   5.4043669512E+01  -3.1557805231E+03   3.1617244223E+03   1.2500000000E+02  0.  0
</event>
<event>
 4   0  0.3991300E-04  0.4255447E+03  0.7818609E-02  0.1035277E+00
       21   -1    0    0  502  501   0.0000000000E+00   0.0000000000E+00   2.3077678716E+02   2.3077678716E+02   0.0000000000E+00  0.  1
       21   -1    0    0  501  502   0.0000000000E+00   0.0000000000E+00  -1.9617256283E+02   1.9617256283E+02   0.0000000000E+00  0.  1
       25    1    1    2    0    0  -4.1333968620E+01  -1.6067324187E+02  -2.8922583593E+01   2.0972816562E+02   1.2500000000E+02  0.  0
       25    1    1    2    0    0   4.1333968620E+01   1.6067324187E+02   6.3526807927E+01   2.1722118437E+02   1.2500000000E+02  0.  0
</event>
<event>
 4   0  0.3991300E-04  0.5514778E+03  0.7818609E-02  0.1001152E+00
       21   -1    0    0  502  501   0.0000000000E+00   0.0000000000E+00   9.4738465653E+01   9.4738465653E+01   0.0000000000E+00  0. -1
       21   -1    0    0  501  502   0.0000000000E+00   0.0000000000E+00  -8.0254560862E+02   8.0254560862E+02   0.0000000000E+00  0. -1
       25    1    1    2    0    0  -4.8362942777E+01   2.4007667694E+02  -3.8768814237E+02   4.7529241608E+02   1.2500000000E+02  0.  0
       25    1    1    2    0    0   4.8362942777E+01  -2.4007667694E+02  -3.2011900060E+02   4.2199165820E+02   1.2500000000E+02  0.  0
</event>
<event>
 4   0  0.3991300E-04  0.3647818E+03  0.7818609E-02  0.1056706E+00
       21   -1    0    0  502  501   0.0000000000E+00   0.0000000000E+00   2.7993667051E+02   2.7993667051E+02   0.0000000000E+00  0. -1
       21   -1    0    0  501  502   0.0000000000E+00   0.0000000000E+00  -1.1883556826E+02   1.1883556826E+02   0.0000000000E+00  0. -1
       25    1    1    2    0    0  -1.0641337740E+02   2.4254343059E+01   1.6329609246E+02   2.3281472002E+02   1.2500000000E+02  0.  0
       25    1    1    2    0    0   1.0641337740E+02  -2.4254343059E+01  -2.1949902025E+00   1.6595751875E+02   1.2500000000E+02  0.  0
</event>
<event>
 4   0  0.3991300E-04  0.6763519E+03  0.7818609E-02  0.9758551E-01
       21   -1    0    0  502  501   0.0000000000E+00   0.0000000000E+00   4.9709349330E+02   4.9709349330E+02   0.0000000000E+00  0. -1
       21   -1    0    0  501  502   0.0000000000E+00   0.0000000000E+00  -2.3006327479E+02   2.3006327479E+02   0.0000000000E+00  0. -1
       25    1    1    2    0    0   1.3350924701E+02  -2.3395856743E+01   4.3829843046E+02   4.7550247034E+02   1.2500000000E+02  0.  0
       25    1    1    2    0    0  -1.3350924701E+02   2.3395856743E+01  -1.7126821195E+02   2.5165429775E+02   1.2500000000E+02  0.  0
</event>
<event>
 4   0  0.3991300E-04  0.6862394E+03  0.7818609E-02  0.9741058E-01
       21   -1    0    0  502  501   0.0000000000E+00   0.0000000000E+00   1.8399361961E+02   1.8399361961E+02   0.0000000000E+00  0.  1
       21   -1    0    0  501  502   0.0000000000E+00   0.0000000000E+00  -6.3986520267E+02   6.3986520267E+02   0.0000000000E+00  0.  1
       25    1    1    2    0    0  -2.8829437502E+02  -6.1136741686E+01  -7.9656685093E+01   3.2988109272E+02   1.2500000000E+02  0.  0
       25    1    1    2    0    0   2.8829437502E+02   6.1136741686E+01  -3.7621489796E+02   4.9397772956E+02   1.2500000000E+02  0.  0
</event>
<event>
 4   0  0.3991300E-04  0.4819089E+03  0.7818609E-02  0.1018612E+00
       21   -1    0    0  502  501   0.0000000000E+00   0.0000000000E+00   4.6895249336E+02   4.6895249336E+02   0.0000000000E+00  0. -1
       21   -1    0    0  501  502   0.0000000000E+00   0.0000000000E+00  -1.2380582821E+02   1.2380582821E+02   0.0000000000E+00  0. -1
       25    1    1    2    0    0  -9.6279256645E+01   6.6892120372E+01   3.8091515604E+02   4.1769080326E+02   1.2500000000E+02  0.  0
       25    1    1    2    0    0   9.6279256645E+01  -6.6892120372E+01  -3.5768490888E+01   1.7506751831E+02   1.2500000000E+02  0.  0
</event>
<event>
 4   0  0.3991300E-04  0.4227944E+03  0.7818609E-02  0.1036161E+00
       21   -1    0    0  502  501   0.0000000000E+00   0.0000000000E+00   1.2692910630E+03   1.2692910630E+03   0.0000000000E+00  0. -1
       21   -1    0    0  501  502   0.0000000000E+00   0.0000000000E+00  -3.5207664199E+01   3.5207664199E+01   0.0000000000E+00  0. -1
       25    1    1    2    0    0   1.2798964630E+02   8.0640235431E+00   2.7046504571E+02   3.2438051573E+02   1.2500000000E+02  0.  0
       25    1    1    2    0    0  -1.2798964630E+02  -8.0640235431E+00   9.6361835307E+02   9.8011821145E+02   1.2500000000E+02  0.  0
</event>
<event>
 4   0  0.3991300E-04  0.5680564E+03  0.7818609E-02  0.9973989E-01
       21   -1    0    0  502  501   0.0000000000E+00   0.0000000000E+00   4.0507760431E+01   4.0507760431E+01   0.0000000000E+00  0. -1
       21   -1    0    0  501  502   0.0000000000E+00   0.0000000000E+00  -1.9915201469E+03   1.9915201469E+03   0.0000000000E+00  0. -1
       25    1    1    2    0    0  -2.3300727498E+02   5.6690199175E+01  -6.6487260301E+02   7.1776510580E+02   1.2500000000E+02  0.  0
       25    1    1    2    0    0   2.3300727498E+02  -5.6690199175E+01  -1.2861397835E+03   1.3142628015E+03   1.2500000000E+02  0.  0
</event>
<event>
 4   0  0.3991300E-04  0.5294613E+03  0.7818609E-02  0.1006363E+00
       21   -1    0    0  502  501   0.0000000000E+00   0.0000000000E+00   3.4753439637E+01   3.4753439637E+01   0.0000000000E+00  0.  1
       21   -1    0    0  501  502   0.0000000000E+00   0.0000000000E+00  -2.0165579640E+03   2.0165579640E+03   0.0000000000E+00  0.  1
       25    1    1    2    0    0   1.7331168588E+02   1.3236642839E+02  -1.3127174864E+03   1.3365665008E+03   1.2500000000E+02  0.  0
       25    1    1    2    0    0  -1.7331168588E+02  -1.3236642839E+02  -6.6908703790E+02   7.1474490283E+02   1.2500000000E+02  0.  0
</event>
<event>
 4   0  0.3991300E-04  0.9860111E+03  0.7818609E-02  0.9324022E-01
       21   -1    0    0  502  501   0.0000000000E+00   0.0000000000E+00   1.6988752289E+03   1.6988752289E+03   0.0000000000E+00  0.  1
       21   -1    0    0  501  502   0.0000000000E+00   0.0000000000E+00  -1.4306788827E+02   1.4306788827E+02   0.0000000000E+00  0.  1
       25    1    1    2    0    0   1.3158918216E+02   2.1261383314E+01  -7.7466257709E+01   1.9847866476E+02   1.2500000000E+02  0.  0
       25    1    1    2    0    0  -1.3158918216E+02  -2.1261383314E+01   1.6332735983E+03   1.6434644524E+03   1.2500000000E+02  0.  0
</event>
<event>
 4   0  0.3991300E-04  0.6315390E+03  0.7818609E-02  0.9842050E-01
       21   -1    0    0  502  501   0.0000000000E+00   0.0000000000E+00   2.5570217386E+03   2.5570217386E+03   0.0000000000E+00  0. -1
       21   -1    0    0  501  502   0.0000000000E+00   0.0000000000E+00  -3.8994728466E+01   3.8994728466E+01   0.0000000000E+00  0. -1
       25    1    1    2    0    0  -5.5376001685E+01  -2.6955044166E+02   8.8313502005E+02   9.3342187986E+02   1.2500000000E+02  0.  0
       25    1    1    2    0    0   5.5376001685E+01   2.6955044166E+02   1.6348919901E+03   1.6625945872E+03   1.2500000000E+02  0.  0
</event>
<event>
 4   0  0.3991300E-04  0.4185028E+03  0.7818609E-02  0.1037555E+00
       21   -1    0    0  502  501   0.0000000000E+00   0.0000000000E+00   3.4762366029E+02   3.4762366029E+02   0.0000000000E+00  0.  1
       21   -1    0    0  501  502   0.0000000000E+00   0.0000000000E+00  -1.2595849669E+02   1.2595849669E+02   0.0000000000E+00  0.  1
       25    1    1    2    0    0  -1.2255415272E+02  -5.1957610163E+01  -4.8025007413E+00   1.8266684870E+02   1.2500000000E+02  0.  0
       25    1    1    2    0    0   1.2255415272E+02   5.1957610163E+01   2.2646766434E+02   2.9091530828E+02   1.2500000000E+02  0.  0
</event>
<event>
 4   0  0.3991300E-04  0.4095624E+03  0.7818609E-02  0.1040518E+00
       21   -1    0    0  502  501   0.0000000000E+00   0.0000000000E+00   1.2007856839E+03   1.2007856839E+03   0.0000000000E+00  0.  1
       21   -1    0    0  501  502   0.0000000000E+00   0.0000000000E+00  -3.4923254009E+01   3.4923254009E+01   0.0000000000E+00  0.  1
       25    1    1    2    0    0   1.4811415691E+02  -1.9538153041E+01   3.9232980815E+02   4.3802650749E+02   1.2500000000E+02  0.  0
       25    1    1    2    0    0  -1.4811415691E+02   1.9538153041E+01   7.7353262171E+02   7.9768243038E+02   1.2500000000E+02  0.  0
</event>
<event>
 4   0  0.3991300E-04  0.4260133E+03  0.7818609E-02  0.1035127E+00
       21   -1    0    0  502  501   0.0000000000E+00   0.0000000000E+00   3.3024071140E+01   3.3024071140E+01   0.0000000000E+00  0. -1
       21   -1    0    0  501  502   0.0000000000E+00   0.0000000000E+00  -1.3739020247E+03   1.3739020247E+03   0.0000000000E+00  0. -1
       25    1    1    2    0    0   1.0348934287E+02   4.0916361311E+01  -1.1056060739E+03   1.1182012267E+03   1.2500000000E+02  0.  0
       25    1    1    2    0    0  -1.0348934287E+02  -4.0916361311E+01  -2.3527187965E+02   2.8872486915E+02   1.2500000000E+02  0.  0
</event>
<event>
 4   0  0.3991300E-04  0.7427338E+03  0.7818609E-02  0.9646819E-01
       21   -1    0    0  502  501   0.0000000000E+00   0.0000000000E+00   1.2426326250E+03   1.2426326250E+03   0.0000000000E+00  0. -1
       21   -1    0    0  501  502   0.0000000000E+00   0.0000000000E+00  -1.1098483533E+02   1.1098483533E+02   0.0000000000E+00  0. -1
       25    1    1    2    0    0   3.4387806778E+02   5.6445893965E+01   5.1268640479E+02   6.3238486232E+02   1.2500000000E+02  0.  0
       25    1    1    2    0    0  -3.4387806778E+02  -5.6445893965E+01   6.1896138484E+02   7.2123259797E+02   1.2500000000E+02  0.  0
</event>
<event>
 4   0  0.3991300E-04  0.3639767E+03  0.7818609E-02  0.1057020E+00
       21   -1    0    0  502  501   0.0000000000E+00   0.0000000000E+00   3.0626824276E+02   3.0626824276E+02   0.0000000000E+00  0. -1
       21   -1    0    0  501  502   0.0000000000E+00   0.0000000000E+00  -1.0813970158E+02   1.0813970158E+02   0.0000000000E+00  0. -1
       25    1    1    2    0    0   4.9636192613E+01  -3.2489542941E+01  -3.5533283302E+01   1.4285284820E+02   1.2500000000E+02  0.  0
       25    1    1    2    0    0  -4.9636192613E+01   3.2489542941E+01   2.3366182449E+02   2.7155509614E+02   1.2500000000E+02  0.  0
</event>
<event>
 4   0  0.3991300E-04  0.9110676E+03  0.7818609E-02  0.9411851E-01
       21   -1    0    0  502  501   0.0000000000E+00   0.0000000000E+00   5.4988259015E+02   5.4988259015E+02   0.0000000000E+00  0.  1
       21   -1    0    0  501  502   0.0000000000E+00   0.0000000000E+00  -3.7737333003E+02   3.7737333003E+02   0.0000000000E+00  0. -1
       25    1    1    2    0    0  -1.0742706551E+02   3.3188986979E+02   3.5590484632E+02   5.1379443332E+02   1.2500000000E+02  0.  0
       25    1    1    2    0    0   1.0742706551E+02  -3.3188986979E+02  -1.8339558621E+02   4.1346148686E+02   1.2500000000E+02  0.  0
</event>
<event>
 4   0  0.3991300E-04  0.5620318E+03  0.7818609E-02  0.9987468E-01
       21   -1    0    0  502  501   0.0000000000E+00   0.0000000000E+00   4.4393230731E+02   4.4393230731E+02   0.0000000000E+00  0.  1
       21   -1    0    0  501  502   0.0000000000E+00   0.0000000000E+00  -1.7788733378E+02   1.7788733378E+02   0.0000000000E+00  0.  1
       25    1    1    2    0    0  -4.5623362112E+01  -1.9435252012E+02   3.0259289401E+02   3.8346036660E+02   1.2500000000E+02  0.  0
       25    1    1    2    0    0   4.5623362112E+01   1.9435252012E+02  -3.6547920478E+01   2.3835927449E+02   1.2500000000E+02  0.  0
</event>
<event>
 4   0  0.3991300E-04  0.7549122E+03  0.7818609E-02  0.9627675E-01
       21   -1    0    0  502  501   0.0000000000E+00   0.0000000000E+00   8.8377666210E+02   8.8377666210E+02   0.0000000000E+00  0.  1
       21   -1    0    0  501  502   0.0000000000E+00   0.0000000000E+00  -1.6120939827E+02   1.6120939827E+02   0.0000000000E+00  0.  1
       25    1    1    2    0    0   8.9734987734E+01   1.8192151630E+02  -4.3949759368E+01   2.4228988312E+02   1.2500000000E+02  0.  0
       25    1    1    2    0    0  -8.9734987734E+01  -1.8192151630E+02   7.6651702320E+02   8.0269617725E+02   1.2500000000E+02  0.  0
</event>
<event>
 4   0  0.3991300E-04  0.4498422E+03  0.7818609E-02  0.1027769E+00
       21   -1    0    0  502  501   0.0000000000E+00   0.0000000000E+00   2.5782154239E+03   2.5782154239E+03   0.0000000000E+00  0.  1
       21   -1    0    0  501  502   0.0000000000E+00   0.0000000000E+00  -1.9621902908E+01   1.9621902908E+01   0.0000000000E+00  0.  1
       25    1    1    2    0    0   1.7978959318E+02   1.3548961842E+01   9.9306301473E+02   1.0170088610E+03   1.2500000000E+02  0.  0
       25    1    1    2    0    0  -1.7978959318E+02  -1.3548961842E+01   1.5655305063E+03   1.5808284658E+03   1.2500000000E+02  0.  0
</event>
<event>
 4   0  0.3991300E-04  0.4181102E+03  0.7818609E-02  0.1037683E+00
       21   -1    0    0  502  501   0.0000000000E+00   0.0000000000E+00   4.5270086038E+02   4.5270086038E+02   0.0000000000E+00  0.  1
       21   -1    0    0  501  502   0.0000000000E+00   0.0000000000E+00  -9.6540630011E+01   9.6540630011E+01   0.0000000000E+00  0.  1
       25    1    1    2    0    0   3.6624966535E+01   1.2949895426E+02   4.6929841346E+01   1.8957525508E+02   1.2500000000E+02  0.  0
       25    1    1    2    0    0  -3.6624966535E+01  -1.2949895426E+02   3.0923038903E+02   3.5966623532E+02   1.2500000000E+02  0.  0
</event>
<event>
 4   0  0.3991300E-04  0.1282261E+04  0.7818609E-02  0.9043752E-01
       21   -1    0    0  502  501   0.0000000000E+00   0.0000000000E+00   7.0915771924E+02   7.0915771924E+02   0.0000000000E+00  0.  1
       21   -1    0    0  501  502   0.0000000000E+00   0.0000000000E+00  -5.7962908499E+02   5.7962908499E+02   0.0000000000E+00  0.  1
       25    1    1    2    0    0  -2.3919351118E+02  -1.2811797169E+02   6.3492162360E+02   7.0169667134E+02   1.2500000000E+02  0.  0
       25    1    1    2    0    0   2.3919351118E+02   1.2811797169E+02  -5.0539298935E+02   5.8709013289E+02   1.2500000000E+02  0.  0
</event>
<event>
 4   0  0.3991300E-04  0.4174189E+03  0.7818609E-02  0.1037910E+00
       21   -1    0    0  502  501   0.0000000000E+00   0.0000000000E+00   1.4192361544E+01   1.4192361544E+01   0.0000000000E+00  0.  1
       21   -1    0    0  501  502   0.0000000000E+00   0.0000000000E+00  -3.0692311561E+03   3.0692311561E+03   0.0000000000E+00  0.  1
       25    1    1    2    0    0  -1.4946830262E+02   6.0106908090E+01  -1.1987389676E+03   1.2159579460E+03   1.2500000000E+02  0.  0
       25    1    1    2    0    0   1.4946830262E+02  -6.0106908090E+01  -1.8562998269E+03   1.8674655717E+03   1.2500000000E+02  0.  0
</event>
<event>
 4   0  0.3991300E-04  0.5552131E+03  0.7818609E-02  0.1000294E+00
       21   -1    0    0  502  501   0.0000000000E+00   0.0000000000E+00   1.4198140406E+02   1.4198140406E+02   0.0000000000E+00  0.  1
       21   -1    0    0  501  502   0.0000000000E+00   0.0000000000E+00  -5.4278515720E+02   5.4278515720E+02   0.0000000000E+00  0.  1
       25    1    1    2    0    0   1.2803670579E+02  -1.2446833064E+02   1.1627304904E+01   2.1827954000E+02   1.2500000000E+02  0.  0
       25    1    1    2    0    0  -1.2803670579E+02   1.2446833064E+02  -4.1243105805E+02   4.6648702126E+02   1.2500000000E+02  0.  0
</event>
<event>
 4   0  0.3991300E-04  0.4353871E+03  0.7818609E-02  0.1032172E+00
       21   -1    0    0  502  501   0.0000000000E+00   0.0000000000E+00   1.2454328926E+01   1.2454328926E+01   0.0000000000E+00  0.  1
       21   -1    0    0  501  502   0.0000000000E+00   0.0000000000E+00  -3.8051412561E+03   3.8051412561E+03   0.0000000000E+00  0.  1
       25    1    1    2    0    0  -2.3194030136E+01  -5.8379498057E-02  -3.4458131173E+03   3.4481576249E+03   1.2500000000E+02  0.  0
       25    1    1    2    0    0   2.3194030136E+01   5.8379498057E-02  -3.4687380983E+02   3.6943796013E+02   1.2500000000E+02  0.  0
</event>
<event>
 4   0  0.3991300E-04  0.3825562E+03  0.7818609E-02  0.1049993E+00
       21   -1    0    0  502  501   0.0000000000E+00   0.0000000000E+00   3.0821356991E+02   3.0821356991E+02   0.0000000000E+00  0. -1
       21   -1    0    0  501  502   0.0000000000E+00   0.0000000000E+00  -1.1870763835E+02   1.1870763835E+02   0.0000000000E+00  0. -1
       25    1    1    2    0    0  -1.3289620626E+02  -5.2533089272E+01   1.2071403317E+02   2.2498445482E+02   1.2500000000E+02  0.  0
       25    1    1    2    0    0   1.3289620626E+02   5.2533089272E+01   6.8791898392E+01   2.0193675345E+02   1.2500000000E+02  0.  0
</event>
<event>
 4   0  0.3991300E-04  0.4059401E+03  0.7818609E-02  0.1041742E+00
       21   -1    0    0  502  501   0.0000000000E+00   0.0000000000E+00   1.6167950665E+02   1.6167950665E+02   0.0000000000E+00  0.  1
       21   -1    0    0  501  502   0.0000000000E+00   0.0000000000E+00  -2.5480554124E+02   2.5480554124E+02   0.0000000000E+00  0.  1
       25    1    1    2    0    0  -6.5754797312E+01  -5.6340442425E+00  -1.9600524325E+02   2.4165779773E+02   1.2500000000E+02  0.  0
       25    1    1    2    0    0   6.5754797312E+01   5.6340442425E+00   1.0287920866E+02   1.7482725016E+02   1.2500000000E+02  0.  0
</event>
<event>
 4   0  0.3991300E-04  0.4003368E+03  0.7818609E-02  0.1043663E+00
       21   -1    0    0  502  501   0.0000000000E+00   0.0000000000E+00   4.5963835904E+01   4.5963835904E+01   0.0000000000E+00  0.  1
       21   -1    0    0  501  502   0.0000000000E+00   0.0000000000E+00  -8.7171549998E+02   8.7171549998E+02   0.0000000000E+00  0.  1
       25    1    1    2    0    0  -1.1087633090E+02  -2.5969185989E+01  -1.6733089820E+02   2.3789196890E+02   1.2500000000E+02  0.  0
       25    1    1    2    0    0   1.1087633090E+02   2.5969185989E+01  -6.5842076587E+02   6.7978736698E+02   1.2500000000E+02  0.  0
</event>
<event>
 4   0  0.3991300E-04  0.4022081E+03  0.7818609E-02  0.1043018E+00
       21   -1    0    0  502  501   0.0000000000E+00   0.0000000000E+00   8.3777056736E+01   8.3777056736E+01   0.0000000000E+00  0.  1
       21   -1    0    0  501  502   0.0000000000E+00   0.0000000000E+00  -4.8274368945E+02   4.8274368945E+02   0.0000000000E+00  0.  1
       25    1    1    2    0    0  -6.0652007273E+01   1.4171547670E+02  -2.4525290519E+02   3.1549315338E+02   1.2500000000E+02  0.  0
       25    1    1    2    0    0   6.0652007273E+01  -1.4171547670E+02  -1.5371372752E+02   2.5102759281E+02   1.2500000000E+02  0.  0
</event>
<event>
 4   0  0.3991300E-04  0.3766257E+03  0.7818609E-02  0.1052188E+00
       21   -1    0    0  502  501   0.0000000000E+00   0.0000000000E+00   3.8106940200E+01   3.8106940200E+01   0.0000000000E+00  0.  1
       21   -1    0    0  501  502   0.0000000000E+00   0.0000000000E+00  -9.3058440593E+02   9.3058440593E+02   0.0000000000E+00  0.  1
       25    1    1    2    0    0   6.0343749839E+01   7.0368698763E+00  -1.1942085664E+02   1.8324089796E+02   1.2500000000E+02  0.  0
       25    1    1    2    0    0  -6.0343749839E+01  -7.0368698763E+00  -7.7305660909E+02   7.8545044817E+02   1.2500000000E+02  0.  0
</event>
<event>
 4   0  0.3991300E-04  0.4869148E+03  0.7818609E-02  0.1017252E+00
       21   -1    0    0  502  501   0.0000000000E+00   0.0000000000E+00   1.0592663179E+03   1.0592663179E+03   0.0000000000E+00  0.  1
       21   -1    0    0  501  502   0.0000000000E+00   0.0000000000E+00  -5.5955234026E+01   5.5955234026E+01   0.0000000000E+00  0.  1
       25    1    1    2    0    0   1.6301741039E+02  -3.4948332393E+01   2.1329968346E+02   2.9819090696E+02   1.2500000000E+02  0.  0
       25    1    1    2    0    0  -1.6301741039E+02   3.4948332393E+01   7.9001140039E+02   8.1703064495E+02   1.2500000000E+02  0.  0
</event>
<event>
 4   0  0.3991300E-04  0.5285878E+03  0.7818609E-02  0.1006575E+00
       21   -1    0    0  502  501   0.0000000000E+00   0.0000000000E+00   1.2655227307E+01   1.2655227307E+01   0.0000000000E+00  0. -1
       21   -1    0    0  501  502   0.0000000000E+00   0.0000000000E+00  -5.5195587193E+03   5.5195587193E+03   0.0000000000E+00  0. -1
       25    1    1    2    0    0  -2.2798664670E+02  -4.4992736774E+00  -3.2474787468E+03   3.2578737491E+03   1.2500000000E+02  0.  0
       25    1    1    2    0    0   2.2798664670E+02   4.4992736774E+00  -2.2594247452E+03   2.2743401974E+03   1.2500000000E+02  0.  0
</event>
<event>
 4   0  0.3991300E-04  0.3931479E+03  0.7818609E-02  0.1046178E+00
       21   -1    0    0  502  501   0.0000000000E+00   0.0000000000E+00   1.9803882183E+01   1.9803882183E+01   0.0000000000E+00  0. -1
       21   -1    0    0  501  502   0.0000000000E+00   0.0000000000E+00  -1.9511992269E+03   1.9511992269E+03   0.0000000000E+00  0. -1
       25    1    1    2    0    0  -1.3990891614E+02  -5.8641378734E+01  -9.5700917946E+02   9.7698765892E+02   1.2500000000E+02  0.  0
       25    1    1    2    0    0   1.3990891614E+02   5.8641378734E+01  -9.7438616527E+02   9.9401545017E+02   1.2500000000E+02  0.  0
</event>
<event>
 4   0  0.3991300E-04  0.4048777E+03  0.7818609E-02  0.1042104E+00
       21   -1    0    0  502  501   0.0000000000E+00   0.0000000000E+00   5.2909111275E+01   5.2909111275E+01   0.0000000000E+00  0. -1
       21   -1    0    0  501  502   0.0000000000E+00   0.0000000000E+00  -7.7456378081E+02   7.7456378081E+02   0.0000000000E+00  0. -1
       25    1    1    2    0    0  -1.7847542469E+01  -1.3213074067E+02  -5.3875675540E+02   5.6891203968E+02   1.2500000000E+02  0.  0
       25    1    1    2    0    0   1.7847542469E+01   1.3213074067E+02  -1.8289791413E+02   2.5856085241E+02   1.2500000000E+02  0.  0
</event>
<event>
 4   0  0.3991300E-04  0.6478847E+03  0.7818609E-02  0.9810757E-01
       21   -1    0    0  502  501   0.0000000000E+00   0.0000000000E+00   5.7847536075E+02   5.7847536075E+02   0.0000000000E+00  0.  1
       21   -1    0    0  501  502   0.0000000000E+00   0.0000000000E+00  -1.8140555752E+02   1.8140555752E+02   0.0000000000E+00  0.  1
       25    1    1    2    0    0   8.0959514310E+01  -2.8588120489E+02   1.6087263641E+02   3.6026033838E+02   1.2500000000E+02  0.  0
       25    1    1    2    0    0  -8.0959514310E+01   2.8588120489E+02   2.3619716682E+02   3.9962057990E+02   1.2500000000E+02  0.  0
</event>
<event>
 4   0  0.3991300E-04  0.4396454E+03  0.7818609E-02  0.1030856E+00
       21   -1    0    0  502  501   0.0000000000E+00   0.0000000000E+00   7.0737228639E+01   7.0737228639E+01   0.0000000000E+00  0. -1
       21   -1    0    0  501  502   0.0000000000E+00   0.0000000000E+00  -6.8312001017E+02   6.8312001017E+02   0.0000000000E+00  0. -1
       25    1    1    2    0    0   6.0411855728E+01   1.9134605773E+01  -5.9658425275E+02   6.1282419671E+02   1.2500000000E+02  0.  0
       25    1    1    2    0    0  -6.0411855728E+01  -1.9134605773E+01  -1.5798528782E+01   1.4103304209E+02   1.2500000000E+02  0.  0
</event>
<event>
 4   0  0.3991300E-04  0.3868259E+03  0.7818609E-02  0.1048439E+00
       21   -1    0    0  502  501   0.0000000000E+00   0.0000000000E+00   5.2850757989E+02   5.2850757989E+02   0.0000000000E+00  0.  1
       21   -1    0    0  501  502   0.0000000000E+00   0.0000000000E+00  -7.0781535757E+01   7.0781535757E+01   0.0000000000E+00  0.  1
       25    1    1    2    0    0   1.1525886072E+02   8.5170464665E+01   1.7419927618E+02   2.5789339047E+02   1.2500000000E+02  0.  0
       25    1    1    2    0    0  -1.1525886072E+02  -8.5170464665E+01   2.8352676795E+02   3.4139572518E+02   1.2500000000E+02  0.  0
</event>
<event>
 4   0  0.3991300E-04  0.5103452E+03  0.7818609E-02  0.1011113E+00
       21   -1    0    0  502  501   0.0000000000E+00   0.0000000000E+00   8.2260710013E+02   8.2260710013E+02   0.0000000000E+00  0.  1
       21   -1    0    0  501  502   0.0000000000E+00   0.0000000000E+00  -7.9154509847E+01   7.9154509847E+01   0.0000000000E+00  0.  1
       25    1    1    2    0    0   1.9828716685E+02  -7.1362741036E+01   2.4581699624E+02   3.4707554939E+02   1.2500000000E+02  0.  0
       25    1    1    2    0    0  -1.9828716685E+02   7.1362741036E+01   4.9763559404E+02   5.5468606058E+02   1.2500000000E+02  0.  0
</event>
<event>
 4   0  0.3991300E-04  0.4184016E+03  0.7818609E-02  0.1037588E+00
       21   -1    0    0  502  501   0.0000000000E+00   0.0000000000E+00   1.5727114320E+03   1.5727114320E+03   0.0000000000E+00  0.  1
       21   -1    0    0  501  502   0.0000000000E+00   0.0000000000E+00  -2.7827721287E+01   2.7827721287E+01   0.0000000000E+00  0.  1
       25    1    1    2    0    0  -1.1927710476E+02  -1.0086566941E+02   1.0063548967E+03   1.0260487752E+03   1.2500000000E+02  0.  0
       25    1    1    2    0    0   1.1927710476E+02   1.0086566941E+02   5.3852881399E+02   5.7449037806E+02   1.2500000000E+02  0.  0
</event>
<event>
 4   0  0.3991300E-04  0.4097627E+03  0.7818609E-02  0.1040451E+00
       21   -1    0    0  502  501   0.0000000000E+00   0.0000000000E+00   1.7065874484E+01   1.7065874484E+01   0.0000000000E+00  0.  1
       21   -1    0    0  501  502   0.0000000000E+00   0.0000000000E+00  -2.4596670126E+03   2.4596670126E+03   0.0000000000E+00  0.  1
       25    1    1    2    0    0   8.3578153497E+01  -6.9523604902E+01  -1.9499478430E+03   1.9569722608E+03   1.2500000000E+02  0.  0
       25    1    1    2    0    0  -8.3578153497E+01   6.9523604902E+01  -4.9265329518E+02   5.1976062628E+02   1.2500000000E+02  0.  0
</event>
<event>
 4   0  0.3991300E-04  0.4882926E+03  0.7818609E-02  0.1016881E+00
       21   -1    0    0  502  501   0.0000000000E+00   0.0000000000E+00   1.6929797863E+02   1.6929797863E+02   0.0000000000E+00  0.  1
       21   -1    0    0  501  502   0.0000000000E+00   0.0000000000E+00  -3.5208575762E+02   3.5208575762E+02   0.0000000000E+00  0.  1
       25    1    1    2    0    0  -1.6410831421E+01  -1.7590622608E+02  -2.1205695937E+02   3.0299417450E+02   1.2500000000E+02  0.  0
       25    1    1    2    0    0   1.6410831421E+01   1.7590622608E+02   2.9269180382E+01   2.1838956175E+02   1.2500000000E+02  0.  0
</event>
<event>
 4   0  0.3991300E-04  0.3777458E+03  0.7818609E-02  0.1051770E+00
       21   -1    0    0  502  501   0.0000000000E+00   0.0000000000E+00   4.5578179822E+02   4.5578179822E+02   0.0000000000E+00  0.  1
       21   -1    0    0  501  502   0.0000000000E+00   0.0000000000E+00  -7.8267645767E+01   7.8267645767E+01   0.0000000000E+00  0.  1
       25    1    1    2    0    0  -7.2141134594E+01   6.9815456956E+01   3.2991879779E+02   3.6681051575E+02   1.2500000000E+02  0.  0
       25    1    1    2    0    0   7.2141134594E+01  -6.9815456956E+01   4.7595354658E+01   1.6723892823E+02   1.2500000000E+02  0.  0
</event>
<event>
 4   0  0.3991300E-04  0.1000258E+04  0.7818609E-02  0.9308262E-01
       21   -1    0    0  502  501   0.0000000000E+00   0.0000000000E+00   3.0872218368E+01   3.0872218368E+01   0.0000000000E+00  0. -1
       21   -1    0    0  501  502   0.0000000000E+00   0.0000000000E+00  -8.1020764564E+03   8.1020764564E+03   0.0000000000E+00  0.  1
       25    1    1    2    0    0  -4.6032766276E+02   6.5123590792E+01  -5.1373678283E+03   5.1598755647E+03   1.2500000000E+02  0.  0
       25    1    1    2    0    0   4.6032766276E+02  -6.5123590792E+01  -2.9338364098E+03   2.9730731102E+03   1.2500000000E+02  0.  0
</event>
<event>
 4   0  0.3991300E-04  0.5180314E+03  0.7818609E-02  0.1009177E+00
       21   -1    0    0  502  501   0.0000000000E+00   0.0000000000E+00   8.9155198047E+01   8.9155198047E+01   0.0000000000E+00  0.  1
       21   -1    0    0  501  502   0.0000000000E+00   0.0000000000E+00  -7.5249822142E+02   7.5249822142E+02   0.0000000000E+00  0.  1
       25    1    1    2    0    0  -1.3736547094E+02  -1.5328656576E+02  -4.8664314024E+02   5.4296647207E+02   1.2500000000E+02  0.  0
       25    1    1    2    0    0   1.3736547094E+02   1.5328656576E+02  -1.7669988313E+02   2.9868694740E+02   1.2500000000E+02  0.  0
</event>
<event>
 4   0  0.3991300E-04  0.3647809E+03  0.7818609E-02  0.1056707E+00
       21   -1    0    0  502  501   0.0000000000E+00   0.0000000000E+00   2.2561965923E+02   2.2561965923E+02   0.0000000000E+00  0. -1
       21   -1    0    0  501  502   0.0000000000E+00   0.0000000000E+00  -1.4744404788E+02   1.4744404788E+02   0.0000000000E+00  0. -1
       25    1    1    2    0    0  -8.7478261960E+00  -1.2919902782E+02   6.9294237699E+01   1.9286162042E+02   1.2500000000E+02  0.  0
       25    1    1    2    0    0   8.7478261960E+00   1.2919902782E+02   8.8813736517E+00   1.8020208670E+02   1.2500000000E+02  0.  0
</event>
<event>
 4   0  0.3991300E-04  0.3717813E+03  0.7818609E-02  0.1054014E+00
       21   -1    0    0  502  501   0.0000000000E+00   0.0000000000E+00   3.8785199279E+02   3.8785199279E+02   0.0000000000E+00  0. -1
       21   -1    0    0  501  502   0.0000000000E+00   0.0000000000E+00  -8.9094117467E+01   8.9094117467E+01   0.0000000000E+00  0. -1
       25    1    1    2    0    0   1.0571603046E+02  -8.6317101255E+01   1.2701837246E+02   2.2446645185E+02   1.2500000000E+02  0.  0
       25    1    1    2    0    0  -1.0571603046E+02   8.6317101255E+01   1.7173950286E+02   2.5247965840E+02   1.2500000000E+02  0.  0
</event>
<event>
 4   0  0.3991300E-04  0.4891872E+03  0.7818609E-02  0.1016640E+00
       21   -1    0    0  502  501   0.0000000000E+00   0.0000000000E+00   1.3664873548E+03   1.3664873548E+03   0.0000000000E+00  0. -1
       21   -1    0    0  501  502   0.0000000000E+00   0.0000000000E+00  -4.3780879064E+01   4.3780879064E+01   0.0000000000E+00  0. -1
       25    1    1    2    0    0  -2.0558288086E+02  -1.6404380633E+01   5.4362742046E+02   5.9471774556E+02   1.2500000000E+02  0.  0
       25    1    1    2    0    0   2.0558288086E+02   1.6404380633E+01   7.7907905526E+02   8.1555048829E+02   1.2500000000E+02  0.  0
</event>
<event>
 4   0  0.3991300E-04  0.3182502E+03  0.7818609E-02  0.1076457E+00
       21   -1    0    0  502  501   0.0000000000E+00   0.0000000000E+00   2.3662888893E+03   2.3662888893E+03   0.0000000000E+00  0.  1
       21   -1    0    0  501  502   0.0000000000E+00   0.0000000000E+00  -1.0700637508E+01   1.0700637508E+01   0.0000000000E+00  0.  1
       25    1    1    2    0    0   2.0398352643E+01  -5.3434465730E+01   5.7913854077E+02   5.9522918638E+02   1.2500000000E+02  0.  0
       25    1    1    2    0    0  -2.0398352643E+01   5.3434465730E+01   1.7764497110E+03   1.7817603404E+03   1.2500000000E+02  0.  0
</event>
<event>
 4   0  0.3991300E-04  0.4265132E+03  0.7818609E-02  0.1034967E+00
       21   -1    0    0  502  501   0.0000000000E+00   0.0000000000E+00   1.2829324037E+03   1.2829324037E+03   0.0000000000E+00  0. -1
       21   -1    0    0  501  502   0.0000000000E+00   0.0000000000E+00  -3.5448770585E+01   3.5448770585E+01   0.0000000000E+00  0. -1
       25    1    1    2    0    0   3.2167000241E+01  -1.6904592897E+02   6.7184090133E+02   7.0470308549E+02   1.2500000000E+02  0.  0
       25    1    1    2    0    0  -3.2167000241E+01   1.6904592897E+02   5.7564273180E+02   6.1367808881E+02   1.2500000000E+02  0.  0
</event>
<event>
 4   0  0.3991300E-04  0.3758004E+03  0.7818609E-02  0.1052497E+00
       21   -1    0    0  502  501   0.0000000000E+00   0.0000000000E+00   7.5207035233E+01   7.5207035233E+01   0.0000000000E+00  0. -1
       21   -1    0    0  501  502   0.0000000000E+00   0.0000000000E+00  -4.6945722566E+02   4.6945722566E+02   0.0000000000E+00  0. -1
       25    1    1    2    0    0  -2.6683656544E+01   1.3170880481E+02  -1.3874943918E+02   2.3007745145E+02   1.2500000000E+02  0.  0
       25    1    1    2    0    0   2.6683656544E+01  -1.3170880481E+02  -2.5550075124E+02   3.1458680944E+02   1.2500000000E+02  0.  0
</event>
<event>
 4   0  0.3991300E-04  0.2865983E+03  0.7818609E-02  0.1092139E+00
       21   -1    0    0  502  501   0.0000000000E+00   0.0000000000E+00   2.3970143452E+01   2.3970143452E+01   0.0000000000E+00  0. -1
       21   -1    0    0  501  502   0.0000000000E+00   0.0000000000E+00  -8.5667622028E+02   8.5667622028E+02   0.0000000000E+00  0. -1
       25    1    1    2    0    0   1.9383871347E+01   2.6161301025E+01  -2.2570591724E+02   2.6005443510E+02   1.2500000000E+02  0.  0
       25    1    1    2    0    0  -1.9383871347E+01  -2.6161301025E+01  -6.0700015960E+02   6.2059192864E+02   1.2500000000E+02  0.  0
</event>
<event>
 4   0  0.3991300E-04  0.7285226E+03  0.7818609E-02  0.9669661E-01
       21   -1    0    0  502  501   0.0000000000E+00   0.0000000000E+00   1.0293110772E+04   1.0293110772E+04   0.0000000000E+00  0.  1
       21   -1    0    0  501  502   0.0000000000E+00   0.0000000000E+00  -1.2890785922E+01   1.2890785922E+01   0.0000000000E+00  0.  1
       25    1    1    2    0    0  -9.4567273017E+01  -2.4814592840E+01   5.0183409209E+02   5.2632802426E+02   1.2500000000E+02  0.  0
       25    1    1    2    0    0   9.4567273017E+01   2.4814592840E+01   9.7783858937E+03   9.7796735334E+03   1.2500000000E+02  0.  0
</event>
<event>
 4   0  0.3991300E-04  0.3675229E+03  0.7818609E-02  0.1055644E+00
       21   -1    0    0  502  501   0.0000000000E+00   0.0000000000E+00   1.3342095740E+02   1.3342095740E+02   0.0000000000E+00  0. -1
       21   -1    0    0  501  502   0.0000000000E+00   0.0000000000E+00  -2.5309573081E+02   2.5309573081E+02   0.0000000000E+00  0. -1
       25    1    1    2    0    0  -6.7124770872E+01  -4.9923617545E+01   5.1189256799E+01   1.5888185065E+02   1.2500000000E+02  0.  0
       25    1    1    2    0    0   6.7124770872E+01   4.9923617545E+01  -1.7086403021E+02   2.2763483756E+02   1.2500000000E+02  0.  0
</event>
<event>
 4   0  0.3991300E-04  0.3809298E+03  0.7818609E-02  0.1050591E+00
       21   -1    0    0  502  501   0.0000000000E+00   0.0000000000E+00   1.7201853178E+03   1.7201853178E+03   0.0000000000E+00  0.  1
       21   -1    0    0  501  502   0.0000000000E+00   0.0000000000E+00  -2.1088937842E+01   2.1088937842E+01   0.0000000000E+00  0.  1
       25    1    1    2    0    0   8.6649608585E+01   7.2343686816E+01   4.4299845656E+02   4.7393501264E+02   1.2500000000E+02  0.  0
       25    1    1    2    0    0  -8.6649608585E+01  -7.2343686816E+01   1.2560979234E+03   1.2673392430E+03   1.2500000000E+02  0.  0
</event>
<event>
 4   0  0.3991300E-04  0.5477802E+03  0.7818609E-02  0.1002009E+00
       21   -1    0    0  502  501   0.0000000000E+00   0.0000000000E+00   4.2921935365E+03   4.2921935365E+03   0.0000000000E+00  0. -1
       21   -1    0    0  501  502   0.0000000000E+00   0.0000000000E+00  -1.7477259212E+01   1.7477259212E+01   0.0000000000E+00  0. -1
       25    1    1    2    0    0  -8.8107285850E+01   2.2481141129E+02   1.8778832945E+03   1.8974650806E+03   1.2500000000E+02  0.  0
       25    1    1    2    0    0   8.8107285850E+01  -2.2481141129E+02   2.3968329828E+03   2.4122057151E+03   1.2500000000E+02  0.  0
</event>
<event>
 4   0  0.3991300E-04  0.3691216E+03  0.7818609E-02  0.1055029E+00
       21   -1    0    0  502  501   0.0000000000E+00   0.0000000000E+00   1.2078551313E+02   1.2078551313E+02   0.0000000000E+00  0.  1
       21   -1    0    0  501  502   0.0000000000E+00   0.0000000000E+00  -2.8200975373E+02   2.8200975373E+02   0.0000000000E+00  0.  1
       25    1    1    2    0    0   2.8035351173E+01  -1.3259200525E+02  -8.9811621211E+01   2.0507985780E+02   1.2500000000E+02  0.  0
       25    1    1    2    0    0  -2.8035351173E+01   1.3259200525E+02  -7.1412619385E+01   1.9771540906E+02   1.2500000000E+02  0.  0
</event>
<event>
 4   0  0.3991300E-04  0.3360354E+03  0.7818609E-02  0.1068497E+00
       21   -1    0    0  502  501   0.0000000000E+00   0.0000000000E+00   3.2385742040E+02   3.2385742040E+02   0.0000000000E+00  0. -1
       21   -1    0    0  501  502   0.0000000000E+00   0.0000000000E+00  -8.7167811129E+01   8.7167811129E+01   0.0000000000E+00  0. -1
       25    1    1    2    0    0  -1.0655371983E+02  -2.6195543212E+01   1.4742004940E+02   2.2225564708E+02   1.2500000000E+02  0.  0
       25    1    1    2    0    0   1.0655371983E+02   2.6195543212E+01   8.9269559864E+01   1.8876958444E+02   1.2500000000E+02  0.  0
</event>
<event>
 4   0  0.3991300E-04  0.6023391E+03  0.7818609E-02  0.9900565E-01
       21   -1    0    0  502  501   0.0000000000E+00   0.0000000000E+00   2.0928728120E+01   2.0928728120E+01   0.0000000000E+00  0.  1
       21   -1    0    0  501  502   0.0000000000E+00   0.0000000000E+00  -4.3339037783E+03   4.3339037783E+03   0.0000000000E+00  0.  1
       25    1    1    2    0    0   1.4043056293E+02  -2.3231834969E+01  -3.8492286607E+03   3.8538872250E+03   1.2500000000E+02  0.  0
       25    1    1    2    0    0  -1.4043056293E+02   2.3231834969E+01  -4.6374638952E+02   5.0094528140E+02   1.2500000000E+02  0.  0
</event>
<event>
 4   0  0.3991300E-04  0.3966232E+03  0.7818609E-02  0.1044955E+00
       21   -1    0    0  502  501   0.0000000000E+00   0.0000000000E+00   1.6649065597E+02   1.6649065597E+02   0.0000000000E+00  0. -1
       21   -1    0    0  501  502   0.0000000000E+00   0.0000000000E+00  -2.3621444722E+02   2.3621444722E+02   0.0000000000E+00  0. -1
       25    1    1    2    0    0   5.9746822607E+01  -1.2333279119E+02  -1.0609348552E+02   2.1368548819E+02   1.2500000000E+02  0.  0
       25    1    1    2    0    0  -5.9746822607E+01   1.2333279119E+02   3.6369694273E+01   1.8901961500E+02   1.2500000000E+02  0.  0
</event>
<event>
 4   0  0.3991300E-04  0.6832398E+03  0.7818609E-02  0.9746332E-01
       21   -1    0    0  502  501   0.0000000000E+00   0.0000000000E+00   8.7441000599E+01   8.7441000599E+01   0.0000000000E+00  0. -1
       21   -1    0    0  501  502   0.0000000000E+00   0.0000000000E+00  -1.3346618153E+03   1.3346618153E+03   0.0000000000E+00  0. -1
       25    1    1    2    0    0   2.6856731766E+02   1.6471727179E+02  -5.3483924896E+02   6.3319681456E+02   1.2500000000E+02  0.  0
       25    1    1    2    0    0  -2.6856731766E+02  -1.6471727179E+02  -7.1238156571E+02   7.8890600131E+02   1.2500000000E+02  0.  0
</event>
<event>
 4   0  0.3991300E-04  0.3473674E+03  0.7818609E-02  0.1063701E+00
       21   -1    0    0  502  501   0.0000000000E+00   0.0000000000E+00   3.4823754960E+02   3.4823754960E+02   0.0000000000E+00  0. -1
       21   -1    0    0  501  502   0.0000000000E+00   0.0000000000E+00  -8.6624831477E+01   8.6624831477E+01   0.0000000000E+00  0. -1
       25    1    1    2    0    0  -1.7859067366E+01  -6.6347408769E+01   6.7495322731E+00   1.4279874342E+02   1.2500000000E+02  0.  0
       25    1    1    2    0    0   1.7859067366E+01   6.6347408769E+01   2.5486318585E+02   2.9206363765E+02   1.2500000000E+02  0.  0
</event>
<event>
 4   0  0.3991300E-04  0.7153171E+03  0.7818609E-02  0.9691391E-01
       21   -1    0    0  502  501   0.0000000000E+00   0.0000000000E+00   2.2599973663E+03   2.2599973663E+03   0.0000000000E+00  0. -1
       21   -1    0    0  501  502   0.0000000000E+00   0.0000000000E+00  -5.6601678466E+01   5.6601678466E+01   0.0000000000E+00  0. -1
       25    1    1    2    0    0   2.6797008749E+02  -2.0034371734E+02   1.0411903194E+03   1.1007487697E+03   1.2500000000E+02  0.  0
       25    1    1    2    0    0  -2.6797008749E+02   2.0034371734E+02   1.1622053685E+03   1.2158502751E+03   1.2500000000E+02  0.  0
</event>
<event>
 4   0  0.3991300E-04  0.4911898E+03  0.7818609E-02  0.1016104E+00
       21   -1    0    0  502  501   0.0000000000E+00   0.0000000000E+00   2.6476259515E+02   2.6476259515E+02   0.0000000000E+00  0. -1
       21   -1    0    0  501  502   0.0000000000E+00   0.0000000000E+00  -2.2781485693E+02   2.2781485693E+02   0.0000000000E+00  0. -1
       25    1    1    2    0    0   3.0076840351E+01   9.3894158095E+01  -1.6906011855E+02   2.3222199064E+02   1.2500000000E+02  0.  0
       25    1    1    2    0    0  -3.0076840351E+01  -9.3894158095E+01   2.0600785678E+02   2.6035546145E+02   1.2500000000E+02  0.  0
</event>
<event>
 4   0  0.3991300E-04  0.4149516E+03  0.7818609E-02  0.1038722E+00
       21   -1    0    0  502  501   0.0000000000E+00   0.0000000000E+00   5.2759344840E+03   5.2759344840E+03   0.0000000000E+00  0.  1
       21   -1    0    0  501  502   0.0000000000E+00   0.0000000000E+00  -8.1589731458E+00   8.1589731458E+00   0.0000000000E+00  0.  1
       25    1    1    2    0    0   1.1484017716E+02  -1.0896242100E+02   2.0152431656E+03   2.0253125912E+03   1.2500000000E+02  0.  0
       25    1    1    2    0    0  -1.1484017716E+02   1.0896242100E+02   3.2525323452E+03   3.2587808659E+03   1.2500000000E+02  0.  0
</event>
<event>
 4   0  0.3991300E-04  0.4568104E+03  0.7818609E-02  0.1025710E+00
       21   -1    0    0  502  501   0.0000000000E+00   0.0000000000E+00   5.9610767462E+00   5.9610767462E+00   0.0000000000E+00  0.  1
       21   -1    0    0  501  502   0.0000000000E+00   0.0000000000E+00  -8.7515967869E+03   8.7515967869E+03   0.0000000000E+00  0.  1
       25    1    1    2    0    0  -1.8263856358E+02  -7.5398044556E+00  -3.3002215781E+03   3.3076428402E+03   1.2500000000E+02  0.  0
       25    1    1    2    0    0   1.8263856358E+02   7.5398044556E+00  -5.4454141320E+03   5.4499150234E+03   1.2500000000E+02  0.  0
</event>
<event>
 4   0  0.3991300E-04  0.4433326E+03  0.7818609E-02  0.1029729E+00
       21   -1    0    0  502  501   0.0000000000E+00   0.0000000000E+00   7.6916396011E+03   7.6916396011E+03   0.0000000000E+00  0. -1
       21   -1    0    0  501  502   0.0000000000E+00   0.0000000000E+00  -6.3882278672E+00   6.3882278672E+00   0.0000000000E+00  0. -1
       25    1    1    2    0    0   7.9130684882E+01  -8.9007832038E+01   6.2565895908E+03   6.2589713506E+03   1.2500000000E+02  0.  0
       25    1    1    2    0    0  -7.9130684882E+01   8.9007832038E+01   1.4286617824E+03   1.4390564784E+03   1.2500000000E+02  0.  0
</event>
<event>
 4   0  0.3991300E-04  0.5392903E+03  0.7818609E-02  0.1004004E+00
       21   -1    0    0  502  501   0.0000000000E+00   0.0000000000E+00   1.8342302035E+03   1.8342302035E+03   0.0000000000E+00  0. -1
       21   -1    0    0  501  502   0.0000000000E+00   0.0000000000E+00  -3.9639794050E+01   3.9639794050E+01   0.0000000000E+00  0. -1
       25    1    1    2    0    0   1.6930493075E+01   1.6546514190E+02   1.4932654072E+03   1.5076909270E+03   1.2500000000E+02  0.  0
       25    1    1    2    0    0  -1.6930493075E+01  -1.6546514190E+02   3.0132500220E+02   3.6617907058E+02   1.2500000000E+02  0.  0
</event>
<event>
 4   0  0.3991300E-04  0.4483341E+03  0.7818609E-02  0.1028220E+00
       21   -1    0    0  502  501   0.0000000000E+00   0.0000000000E+00   1.4367809917E+03   1.4367809917E+03   0.0000000000E+00  0. -1
       21   -1    0    0  501  502   0.0000000000E+00   0.0000000000E+00  -3.4974625477E+01   3.4974625477E+01   0.0000000000E+00  0. -1
       25    1    1    2    0    0   1.6883545239E+01   1.6687601541E+02   4.3637990838E+02   4.8392673315E+02   1.2500000000E+02  0.  0
       25    1    1    2    0    0  -1.6883545239E+01  -1.6687601541E+02   9.6542645783E+02   9.8782888402E+02   1.2500000000E+02  0.  0
</event>
<event>
 4   0  0.3991300E-04  0.3523767E+03  0.7818609E-02  0.1061644E+00
       21   -1    0    0  502  501   0.0000000000E+00   0.0000000000E+00   1.1004587629E+02   1.1004587629E+02   0.0000000000E+00  0.  1
       21   -1    0    0  501  502   0.0000000000E+00   0.0000000000E+00  -2.8208543914E+02   2.8208543914E+02   0.0000000000E+00  0.  1
       25    1    1    2    0    0  -2.5397900487E+01  -5.6483438624E+01   3.3740924984E+01   1.4352310687E+02   1.2500000000E+02  0.  0
       25    1    1    2    0    0   2.5397900487E+01   5.6483438624E+01  -2.0578048784E+02   2.4860820856E+02   1.2500000000E+02  0.  0
</event>
<event>
 4   0  0.3991300E-04  0.6842830E+03  0.7818609E-02  0.9744494E-01
       21   -1    0    0  502  501   0.0000000000E+00   0.0000000000E+00   3.8128984447E+01   3.8128984447E+01   0.0000000000E+00  0.  1
       21   -1    0    0  501  502   0.0000000000E+00   0.0000000000E+00  -3.0701263569E+03   3.0701263569E+03   0.0000000000E+00  0.  1
       25    1    1    2    0    0   8.6555770768E+01   2.2255976530E+02  -5.5874627895E+02   6.2036050392E+02   1.2500000000E+02  0.  0
       25    1    1    2    0    0  -8.6555770768E+01  -2.2255976530E+02  -2.4732510935E+03   2.4878948374E+03   1.2500000000E+02  0.  0
</event>
<event>
 4   0  0.3991300E-04  0.4000518E+03  0.7818609E-02  0.1043762E+00
       21   -1    0    0  502  501   0.0000000000E+00   0.0000000000E+00   5.6211666020E+02   5.6211666020E+02   0.0000000000E+00  0. -1
       21   -1    0    0  501  502   0.0000000000E+00   0.0000000000E+00  -7.1178029447E+01   7.1178029447E+01   0.0000000000E+00  0. -1
       25    1    1    2    0    0   3.4436273560E+01  -6.6178216281E+01   4.6263879619E+02   4.8500007112E+02   1.2500000000E+02  0.  0
       25    1    1    2    0    0  -3.4436273560E+01   6.6178216281E+01   2.8299834559E+01   1.4829461852E+02   1.2500000000E+02  0.  0
</event>
<event>
 4   0  0.3991300E-04  0.4145477E+03  0.7818609E-02  0.1038856E+00
       21   -1    0    0  502  501   0.0000000000E+00   0.0000000000E+00   1.1203181298E+02   1.1203181298E+02   0.0000000000E+00  0.  1
       21   -1    0    0  501  502   0.0000000000E+00   0.0000000000E+00  -3.8348440123E+02   3.8348440123E+02   0.0000000000E+00  0.  1
       25    1    1    2    0    0   4.3652956599E+00  -1.0579839939E+02  -2.8751326348E+02   3.3090970641E+02   1.2500000000E+02  0.  0
       25    1    1    2    0    0  -4.3652956599E+00   1.0579839939E+02   1.6060675227E+01   1.6460650780E+02   1.2500000000E+02  0.  0
</event>
<event>
 4   0  0.3991300E-04  0.5083958E+03  0.7818609E-02  0.1011610E+00
       21   -1    0    0  502  501   0.0000000000E+00   0.0000000000E+00   9.4666415214E+02   9.4666415214E+02   0.0000000000E+00  0. -1
       21   -1    0    0  501  502   0.0000000000E+00   0.0000000000E+00  -6.8257122828E+01   6.8257122828E+01   0.0000000000E+00  0. -1
       25    1    1    2    0    0  -1.9382824474E+02   9.7073913434E+01   3.4995125419E+02   4.3021345102E+02   1.2500000000E+02  0.  0
       25    1    1    2    0    0   1.9382824474E+02  -9.7073913434E+01   5.2845577512E+02   5.8470782395E+02   1.2500000000E+02  0.  0
</event>
<event>
 4   0  0.3991300E-04  0.4176582E+03  0.7818609E-02  0.1037831E+00
       21   -1    0    0  502  501   0.0000000000E+00   0.0000000000E+00   1.6002660719E+03   1.6002660719E+03   0.0000000000E+00  0.  1
       21   -1    0    0  501  502   0.0000000000E+00   0.0000000000E+00  -2.7251463622E+01   2.7251463622E+01   0.0000000000E+00  0.  1
       25    1    1    2    0    0  -3.2970583775E+01   8.4020107516E+01   1.3353593698E+03   1.3442306664E+03   1.2500000000E+02  0.  0
       25    1    1    2    0    0   3.2970583775E+01  -8.4020107516E+01   2.3765523844E+02   2.8328686913E+02   1.2500000000E+02  0.  0
</event>
<event>
 4   0  0.3991300E-04  0.3226344E+03  0.7818609E-02  0.1074443E+00
       21   -1    0    0  502  501   0.0000000000E+00   0.0000000000E+00   1.9033088964E+03   1.9033088964E+03   0.0000000000E+00  0.  1
       21   -1    0    0  501  502   0.0000000000E+00   0.0000000000E+00  -1.3672630897E+01   1.3672630897E+01   0.0000000000E+00  0.  1
       25    1    1    2    0    0  -5.4218130637E+01  -8.5523511366E+01   1.0162078569E+03   1.0288621313E+03   1.2500000000E+02  0.  0
       25    1    1    2    0    0   5.4218130637E+01   8.5523511366E+01   8.7342840853E+02   8.8811939598E+02   1.2500000000E+02  0.  0
</event>
<event>
 4   0  0.3991300E-04  0.3895300E+03  0.7818609E-02  0.1047467E+00
       21   -1    0    0  502  501   0.0000000000E+00   0.0000000000E+00   9.4297071834E+03   9.4297071834E+03   0.0000000000E+00  0.  1
       21   -1    0    0  501  502   0.0000000000E+00   0.0000000000E+00  -4.0227558548E+00   4.0227558548E+00   0.0000000000E+00  0.  1
       25    1    1    2    0    0   7.7919002524E+01   1.2344801714E+02   5.4777804293E+03   5.4811508112E+03   1.2500000000E+02  0.  0
       25    1    1    2    0    0  -7.7919002524E+01  -1.2344801714E+02   3.9479039982E+03   3.9525791280E+03   1.2500000000E+02  0.  0
</event>
<event>
 4   0  0.3991300E-04  0.7245336E+03  0.7818609E-02  0.9676173E-01
       21   -1    0    0  502  501   0.0000000000E+00   0.0000000000E+00   1.2262167667E+03   1.2262167667E+03   0.0000000000E+00  0.  1
       21   -1    0    0  501  502   0.0000000000E+00   0.0000000000E+00  -1.0702611638E+02   1.0702611638E+02   0.0000000000E+00  0.  1
       25    1    1    2    0    0  -7.5624691551E+01   3.3007087955E+02   5.0298780723E+02   6.1910226434E+02   1.2500000000E+02  0.  0
       25    1    1    2    0    0   7.5624691551E+01  -3.3007087955E+02   6.1620284308E+02   7.1414061872E+02   1.2500000000E+02  0.  0
</event>
<event>
 4   0  0.3991300E-04  0.7176981E+03  0.7818609E-02  0.9687436E-01
       21   -1    0    0  502  501   0.0000000000E+00   0.0000000000E+00   4.3775121473E+02   4.3775121473E+02   0.0000000000E+00  0. -1
       21   -1    0    0  501  502   0.0000000000E+00   0.0000000000E+00  -2.9416855846E+02   2.9416855846E+02   0.0000000000E+00  0. -1
       25    1    1    2    0    0  -4.0083241413E+01   1.1985483822E+02   3.8969879614E+02   4.2832464346E+02   1.2500000000E+02  0.  0
       25    1    1    2    0    0   4.0083241413E+01  -1.1985483822E+02  -2.4611613988E+02   3.0359512973E+02   1.2500000000E+02  0.  0
</event>
<event>
 4   0  0.3991300E-04  0.4296905E+03  0.7818609E-02  0.1033958E+00
       21   -1    0    0  502  501   0.0000000000E+00   0.0000000000E+00   4.9717354130E+01   4.9717354130E+01   0.0000000000E+00  0.  1
       21   -1    0    0  501  502   0.0000000000E+00   0.0000000000E+00  -9.2841770677E+02   9.2841770677E+02   0.0000000000E+00  0.  1
       25    1    1    2    0    0  -5.2315920232E+01  -1.6323796550E+02  -5.1654175963E+02   5.5841201485E+02   1.2500000000E+02  0.  0
       25    1    1    2    0    0   5.2315920232E+01   1.6323796550E+02  -3.6215859301E+02   4.1972304605E+02   1.2500000000E+02  0.  0
</event>
<event>
 4   0  0.3991300E-04  0.3831750E+03  0.7818609E-02  0.1049766E+00
       21   -1    0    0  502  501   0.0000000000E+00   0.0000000000E+00   2.4394533629E+02   2.4394533629E+02   0.0000000000E+00  0. -1
       21   -1    0    0  501  502   0.0000000000E+00   0.0000000000E+00  -1.5046719002E+02   1.5046719002E+02   0.0000000000E+00  0. -1
       25    1    1    2    0    0   1.0863952553E+02  -5.3919443041E+01  -3.5419803510E+01   1.7773411413E+02   1.2500000000E+02  0.  0
       25    1    1    2    0    0  -1.0863952553E+02   5.3919443041E+01   1.2889794978E+02   2.1667841217E+02   1.2500000000E+02  0.  0
</event>
<event>
 4   0  0.3991300E-04  0.2994201E+03  0.7818609E-02  0.1085531E+00
       21   -1    0    0  502  501   0.0000000000E+00   0.0000000000E+00   7.1809876342E+01   7.1809876342E+01   0.0000000000E+00  0.  1
       21   -1    0    0  501  502   0.0000000000E+00   0.0000000000E+00  -3.1211724844E+02   3.1211724844E+02   0.0000000000E+00  0.  1
       25    1    1    2    0    0  -6.6044518815E+01   3.8169731190E+01  -1.6007415431E+02   2.1695055133E+02   1.2500000000E+02  0.  0
       25    1    1    2    0    0   6.6044518815E+01  -3.8169731190E+01  -8.0233217789E+01   1.6697657345E+02   1.2500000000E+02  0.  0
</event>
<event>
 4   0  0.3991300E-04  0.4017058E+03  0.7818609E-02  0.1043191E+00
       21   -1    0    0  502  501   0.0000000000E+00   0.0000000000E+00   9.9100530750E+01   9.9100530750E+01   0.0000000000E+00  0. -1
       21   -1    0    0  501  502   0.0000000000E+00   0.0000000000E+00  -4.0708034513E+02   4.0708034513E+02   0.0000000000E+00  0. -1
       25    1    1    2    0    0   6.9517412978E+01  -3.4932545266E+01  -3.2613679214E+02   3.5783119011E+02   1.2500000000E+02  0.  0
       25    1    1    2    0    0  -6.9517412978E+01   3.4932545266E+01   1.8156977766E+01   1.4834968577E+02   1.2500000000E+02  0.  0
</event>
<event>
 4   0  0.3991300E-04  0.5894421E+03  0.7818609E-02  0.9927556E-01
       21   -1    0    0  502  501   0.0000000000E+00   0.0000000000E+00   3.8218096901E+03   3.8218096901E+03   0.0000000000E+00  0.  1
       21   -1    0    0  501  502   0.0000000000E+00   0.0000000000E+00  -2.2727584874E+01   2.2727584874E+01   0.0000000000E+00  0.  1
       25    1    1    2    0    0   2.0126210188E+02   1.0954307447E+02   2.7921570571E+03   2.8043309630E+03   1.2500000000E+02  0.  0
       25    1    1    2    0    0  -2.0126210188E+02  -1.0954307447E+02   1.0069250481E+03   1.0402063119E+03   1.2500000000E+02  0.  0
</event>
<event>
 4   0  0.3991300E-04  0.5263082E+03  0.7818609E-02  0.1007131E+00
       21   -1    0    0  502  501   0.0000000000E+00   0.0000000000E+00   1.3246541577E+02   1.3246541577E+02   0.0000000000E+00  0.  1
       21   -1    0    0  501  502   0.0000000000E+00   0.0000000000E+00  -5.2277853633E+02   5.2277853633E+02   0.0000000000E+00  0.  1
       25    1    1    2    0    0   7.4986525825E+01  -1.3875094859E+02  -4.0625444034E+02   4.5336792463E+02   1.2500000000E+02  0.  0
       25    1    1    2    0    0  -7.4986525825E+01   1.3875094859E+02   1.5941319774E+01   2.0187602747E+02   1.2500000000E+02  0.  0
</event>
<event>
 4   0  0.3991300E-04  0.5090516E+03  0.7818609E-02  0.1011443E+00
       21   -1    0    0  502  501   0.0000000000E+00   0.0000000000E+00   3.9115024497E+02   3.9115024497E+02   0.0000000000E+00  0. -1
       21   -1    0    0  501  502   0.0000000000E+00   0.0000000000E+00  -1.6562277006E+02   1.6562277006E+02   0.0000000000E+00  0. -1
       25    1    1    2    0    0  -1.7645011592E+02  -1.2378958770E+02   1.6959518535E+02   3.0140675561E+02   1.2500000000E+02  0.  0
       25    1    1    2    0    0   1.7645011592E+02   1.2378958770E+02   5.5932289559E+01   2.5536625942E+02   1.2500000000E+02  0.  0
</event>
<event>
 4   0  0.3991300E-04  0.3928232E+03  0.7818609E-02  0.1046293E+00
       21   -1    0    0  502  501   0.0000000000E+00   0.0000000000E+00   3.6314999351E+02   3.6314999351E+02   0.0000000000E+00  0. -1
       21   -1    0    0  501  502   0.0000000000E+00   0.0000000000E+00  -1.0623026990E+02   1.0623026990E+02   0.0000000000E+00  0. -1
       25    1    1    2    0    0  -4.8831761024E+01  -7.5146629814E+01  -1.7497539108E+01   1.5479896877E+02   1.2500000000E+02  0.  0
       25    1    1    2    0    0   4.8831761024E+01   7.5146629814E+01   2.7441726272E+02   3.1458129464E+02   1.2500000000E+02  0.  0
</event>
<event>
 4   0  0.3991300E-04  0.4855369E+03  0.7818609E-02  0.1017624E+00
       21   -1    0    0  502  501   0.0000000000E+00   0.0000000000E+00   2.9379196333E+02   2.9379196333E+02   0.0000000000E+00  0.  1
       21   -1    0    0  501  502   0.0000000000E+00   0.0000000000E+00  -2.0060632969E+02   2.0060632969E+02   0.0000000000E+00  0.  1
       25    1    1    2    0    0   5.0000510983E+01   1.0814514113E+02  -1.2715579049E+02   2.1445050176E+02   1.2500000000E+02  0.  0
       25    1    1    2    0    0  -5.0000510983E+01  -1.0814514113E+02   2.2034142413E+02   2.7994779127E+02   1.2500000000E+02  0.  0
</event>
<event>
 4   0  0.3991300E-04  0.6030101E+03  0.7818609E-02  0.9899181E-01
       21   -1    0    0  502  501   0.0000000000E+00   0.0000000000E+00   1.0517842498E+02   1.0517842498E+02   0.0000000000E+00  0.  1
       21   -1    0    0  501  502   0.0000000000E+00   0.0000000000E+00  -8.6429616252E+02   8.6429616252E+02   0.0000000000E+00  0. -1
       25    1    1    2    0    0  -1.5534490934E+02  -1.2765572689E+02  -7.9416414259E+01   2.4971982765E+02   1.2500000000E+02  0.  0
       25    1    1    2    0    0   1.5534490934E+02   1.2765572689E+02  -6.7970132328E+02   7.1975475986E+02   1.2500000000E+02  0.  0
</event>
<event>
 4   0  0.3991300E-04  0.3283111E+03  0.7818609E-02  0.1071887E+00
       21   -1    0    0  502  501   0.0000000000E+00   0.0000000000E+00   7.9283366066E+01   7.9283366066E+01   0.0000000000E+00  0. -1
       21   -1    0    0  501  502   0.0000000000E+00   0.0000000000E+00  -3.3988271407E+02   3.3988271407E+02   0.0000000000E+00  0. -1
       25    1    1    2    0    0   7.7476228992E+01   6.9827751795E+01  -1.5718894481E+02   2.2630034324E+02   1.2500000000E+02  0.  0
       25    1    1    2    0    0  -7.7476228992E+01  -6.9827751795E+01  -1.0341040319E+02   1.9286573689E+02   1.2500000000E+02  0.  0
</event>
<event>
 4   0  0.3991300E-04  0.4920578E+03  0.7818609E-02  0.1015873E+00
       21   -1    0    0  502  501   0.0000000000E+00   0.0000000000E+00   1.0816707522E+02   1.0816707522E+02   0.0000000000E+00  0. -1
       21   -1    0    0  501  502   0.0000000000E+00   0.0000000000E+00  -5.5959927427E+02   5.5959927427E+02   0.0000000000E+00  0. -1
       25    1    1    2    0    0   2.0862989880E+02   2.5346131298E+01  -2.6254190539E+02   3.5877864085E+02   1.2500000000E+02  0.  0
       25    1    1    2    0    0  -2.0862989880E+02  -2.5346131298E+01  -1.8889029367E+02   3.0898770863E+02   1.2500000000E+02  0.  0
</event>
<event>
 4   0  0.3991300E-04  0.7476908E+03  0.7818609E-02  0.9638980E-01
       21   -1    0    0  502  501   0.0000000000E+00   0.0000000000E+00   3.2473019644E+03   3.2473019644E+03   0.0000000000E+00  0. -1
       21   -1    0    0  501  502   0.0000000000E+00   0.0000000000E+00  -4.3038918641E+01   4.3038918641E+01   0.0000000000E+00  0. -1
       25    1    1    2    0    0   1.7045553356E+02   8.6410145890E+01   2.9955107347E+02   3.7666649420E+02   1.2500000000E+02  0.  0
       25    1    1    2    0    0  -1.7045553356E+02  -8.6410145890E+01   2.9047119723E+03   2.9136743889E+03   1.2500000000E+02  0.  0
</event>
<event>
 4   0  0.3991300E-04  0.5716718E+03  0.7818609E-02  0.9965986E-01
       21   -1    0    0  502  501   0.0000000000E+00   0.0000000000E+00   1.8723917613E+02   1.8723917613E+02   0.0000000000E+00  0. -1
       21   -1    0    0  501  502   0.0000000000E+00   0.0000000000E+00  -4.3635192534E+02   4.3635192534E+02   0.0000000000E+00  0. -1
       25    1    1    2    0    0  -6.0515502704E+01  -1.9961908977E+02   3.9311038262E+01   2.4633364528E+02   1.2500000000E+02  0.  0
       25    1    1    2    0    0   6.0515502704E+01   1.9961908977E+02  -2.8842378747E+02   3.7725745619E+02   1.2500000000E+02  0.  0
</event>
<event>
 4   0  0.3991300E-04  0.4988697E+03  0.7818609E-02  0.1014074E+00
       21   -1    0    0  502  501   0.0000000000E+00   0.0000000000E+00   1.3330024728E+01   1.3330024728E+01   0.0000000000E+00  0.  1
       21   -1    0    0  501  502   0.0000000000E+00   0.0000000000E+00  -4.6674885520E+03   4.6674885520E+03   0.0000000000E+00  0.  1
       25    1    1    2    0    0  -2.0063507504E+02   2.4924444205E+01  -1.6176294012E+03   1.6350001654E+03   1.2500000000E+02  0.  0
       25    1    1    2    0    0   2.0063507504E+02  -2.4924444205E+01  -3.0365291260E+03   3.0458184113E+03   1.2500000000E+02  0.  0
</event>
<event>
 4   0  0.3991300E-04  0.5094846E+03  0.7818609E-02  0.1011333E+00
       21   -1    0    0  502  501   0.0000000000E+00   0.0000000000E+00   6.6644394919E+01   6.6644394919E+01   0.0000000000E+00  0. -1
       21   -1    0    0  501  502   0.0000000000E+00   0.0000000000E+00  -9.7372977903E+02   9.7372977903E+02   0.0000000000E+00  0. -1
       25    1    1    2    0    0   1.0247262039E+02  -9.9317421881E+01  -1.0637617751E+02   2.1749822841E+02   1.2500000000E+02  0.  0
       25    1    1    2    0    0  -1.0247262039E+02   9.9317421881E+01  -8.0070920660E+02   8.2287594555E+02   1.2500000000E+02  0.  0
</event>
<event>
 4   0  0.3991300E-04  0.6342151E+03  0.7818609E-02  0.9836858E-01
       21   -1    0    0  502  501   0.0000000000E+00   0.0000000000E+00   3.3204531399E+02   3.3204531399E+02   0.0000000000E+00  0.  1
       21   -1    0    0  501  502   0.0000000000E+00   0.0000000000E+00  -3.0284181644E+02   3.0284181644E+02   0.0000000000E+00  0.  1
       25    1    1    2    0    0   8.2108397421E+01   2.6861907193E+02  -6.3160746127E+01   3.1386665096E+02   1.2500000000E+02  0.  0
       25    1    1    2    0    0  -8.2108397421E+01  -2.6861907193E+02   9.2364243670E+01   3.2102047947E+02   1.2500000000E+02  0.  0
</event>
<event>
 4   0  0.3991300E-04  0.4075486E+03  0.7818609E-02  0.1041197E+00
       21   -1    0    0  502  501   0.0000000000E+00   0.0000000000E+00   1.9609860399E+02   1.9609860399E+02   0.0000000000E+00  0.  1
       21   -1    0    0  501  502   0.0000000000E+00   0.0000000000E+00  -2.1175048702E+02   2.1175048702E+02   0.0000000000E+00  0.  1
       25    1    1    2    0    0   7.0835501447E+01  -1.1665009287E+02  -9.3176930214E+01   2.0720003078E+02   1.2500000000E+02  0.  0
       25    1    1    2    0    0  -7.0835501447E+01   1.1665009287E+02   7.7525047188E+01   2.0064906023E+02   1.2500000000E+02  0.  0
</event>
<event>
 4   0  0.3991300E-04  0.4884995E+03  0.7818609E-02  0.1016825E+00
       21   -1    0    0  502  501   0.0000000000E+00   0.0000000000E+00   1.9340615162E+01   1.9340615162E+01   0.0000000000E+00  0. -1
       21   -1    0    0  501  502   0.0000000000E+00   0.0000000000E+00  -3.0845934469E+03   3.0845934469E+03   0.0000000000E+00  0. -1
       25    1    1    2    0    0   1.6166273442E+02  -9.7711793507E+01  -9.5198950981E+02   9.7856602285E+02   1.2500000000E+02  0.  0
       25    1    1    2    0    0  -1.6166273442E+02   9.7711793507E+01  -2.1132633219E+03   2.1253680392E+03   1.2500000000E+02  0.  0
</event>
<event>
 4   0  0.3991300E-04  0.3502342E+03  0.7818609E-02  0.1062519E+00
       21   -1    0    0  502  501   0.0000000000E+00   0.0000000000E+00   2.6028173020E+03   2.6028173020E+03   0.0000000000E+00  0. -1
       21   -1    0    0  501  502   0.0000000000E+00   0.0000000000E+00  -1.1781847232E+01   1.1781847232E+01   0.0000000000E+00  0. -1
       25    1    1    2    0    0  -7.6526222250E+00  -1.0060106663E+02   1.8160501015E+03   1.8231407264E+03   1.2500000000E+02  0.  0
       25    1    1    2    0    0   7.6526222250E+00   1.0060106663E+02   7.7498535326E+02   7.9145842278E+02   1.2500000000E+02  0.  0
</event>
<event>
 4   0  0.3991300E-04  0.4085271E+03  0.7818609E-02  0.1040866E+00
       21   -1    0    0  502  501   0.0000000000E+00   0.0000000000E+00   7.6682764625E+01   7.6682764625E+01   0.0000000000E+00  0.  1
       21   -1    0    0  501  502   0.0000000000E+00   0.0000000000E+00  -5.4410671016E+02   5.4410671016E+02   0.0000000000E+00  0.  1
       25    1    1    2    0    0   5.8368704370E+01   1.6386113747E+01  -6.1644101090E+00   1.3906261297E+02   1.2500000000E+02  0.  0
       25    1    1    2    0    0  -5.8368704370E+01  -1.6386113747E+01  -4.6125953542E+02   4.8172686181E+02   1.2500000000E+02  0.  0
</event>
<event>
 4   0  0.3991300E-04  0.6591891E+03  0.7818609E-02  0.9789688E-01
       21   -1    0    0  502  501   0.0000000000E+00   0.0000000000E+00   4.3507313212E+02   4.3507313212E+02   0.0000000000E+00  0.  1
       21   -1    0    0  501  502   0.0000000000E+00   0.0000000000E+00  -2.4968805958E+02   2.4968805958E+02   0.0000000000E+00  0.  1
       25    1    1    2    0    0   6.1921507495E+01  -1.6655595577E+02   3.5016328073E+02   4.1208552834E+02   1.2500000000E+02  0.  0
       25    1    1    2    0    0  -6.1921507495E+01   1.6655595577E+02  -1.6477820819E+02   2.7267566336E+02   1.2500000000E+02  0.  0
</event>
<event>
 4   0  0.3991300E-04  0.6452249E+03  0.7818609E-02  0.9815781E-01
       21   -1    0    0  502  501   0.0000000000E+00   0.0000000000E+00   2.0304753890E+02   2.0304753890E+02   0.0000000000E+00  0.  1
       21   -1    0    0  501  502   0.0000000000E+00   0.0000000000E+00  -5.1258339643E+02   5.1258339643E+02   0.0000000000E+00  0.  1
       25    1    1    2    0    0  -2.0109225026E+02  -6.8407063514E+01   7.6121090895E+01   2.5794774651E+02   1.2500000000E+02  0.  0
       25    1    1    2    0    0   2.0109225026E+02   6.8407063514E+01  -3.8565694843E+02   4.5768318882E+02   1.2500000000E+02  0.  0
</event>
<event>
 4   0  0.3991300E-04  0.4688484E+03  0.7818609E-02  0.1022246E+00
       21   -1    0    0  502  501   0.0000000000E+00   0.0000000000E+00   9.4299217495E+02   9.4299217495E+02   0.0000000000E+00  0.  1
       21   -1    0    0  501  502   0.0000000000E+00   0.0000000000E+00  -5.8276938390E+01   5.8276938390E+01   0.0000000000E+00  0.  1
       25    1    1    2    0    0  -1.0517174527E+02   1.5074628676E+01   7.9997442791E+02   8.1662257239E+02   1.2500000000E+02  0.  0
       25    1    1    2    0    0   1.0517174527E+02  -1.5074628676E+01   8.4740808646E+01   1.8464654094E+02   1.2500000000E+02  0.  0
</event>
<event>
 4   0  0.3991300E-04  0.4123259E+03  0.7818609E-02  0.1039593E+00
       21   -1    0    0  502  501   0.0000000000E+00   0.0000000000E+00   1.4152013860E+01   1.4152013860E+01   0.0000000000E+00  0. -1
       21   -1    0    0  501  502   0.0000000000E+00   0.0000000000E+00  -3.0033300245E+03   3.0033300245E+03   0.0000000000E+00  0. -1
       25    1    1    2    0    0   7.4122113426E+01  -1.6455220286E+00  -2.5646827818E+03   2.5687972997E+03   1.2500000000E+02  0.  0
       25    1    1    2    0    0  -7.4122113426E+01   1.6455220286E+00  -4.2449522885E+02   4.4868473872E+02   1.2500000000E+02  0.  0
</event>
<event>
 4   0  0.3991300E-04  0.4842430E+03  0.7818609E-02  0.1017976E+00
       21   -1    0    0  502  501   0.0000000000E+00   0.0000000000E+00   1.4393708180E+03   1.4393708180E+03   0.0000000000E+00  0. -1
       21   -1    0    0  501  502   0.0000000000E+00   0.0000000000E+00  -4.0728092584E+01   4.0728092584E+01   0.0000000000E+00  0. -1
       25    1    1    2    0    0   2.0363015938E+02  -2.8206850260E+01   6.1634598479E+02   6.6164056797E+02   1.2500000000E+02  0.  0
       25    1    1    2    0    0  -2.0363015938E+02   2.8206850260E+01   7.8229674062E+02   8.1845834262E+02   1.2500000000E+02  0.  0
</event>
<event>
 4   0  0.3991300E-04  0.5700315E+03  0.7818609E-02  0.9969609E-01
       21   -1    0    0  502  501   0.0000000000E+00   0.0000000000E+00   7.8713751898E+02   7.8713751898E+02   0.0000000000E+00  0. -1
       21   -1    0    0  501  502   0.0000000000E+00   0.0000000000E+00  -1.0320176044E+02   1.0320176044E+02   0.0000000000E+00  0. -1
       25    1    1    2    0    0   5.7140634126E+00  -2.4957433806E+02   4.3154293605E+02   5.1397889684E+02   1.2500000000E+02  0.  0
       25    1    1    2    0    0  -5.7140634126E+00   2.4957433806E+02   2.5239282249E+02   3.7636038259E+02   1.2500000000E+02  0.  0
</event>
<event>
 4   0  0.3991300E-04  0.4952598E+03  0.7818609E-02  0.1015024E+00
       21   -1    0    0  502  501   0.0000000000E+00   0.0000000000E+00   4.4936517839E+01   4.4936517839E+01   0.0000000000E+00  0. -1
       21   -1    0    0  501  502   0.0000000000E+00   0.0000000000E+00  -1.3646040856E+03   1.3646040856E+03   0.0000000000E+00  0. -1
       25    1    1    2    0    0   1.5260514095E+01  -2.1321591484E+02  -6.6348541006E+02   7.0818909834E+02   1.2500000000E+02  0.  0
       25    1    1    2    0    0  -1.5260514095E+01   2.1321591484E+02  -6.5618215773E+02   7.0135150513E+02   1.2500000000E+02  0.  0
</event>
<event>
 4   0  0.3991300E-04  0.4050156E+03  0.7818609E-02  0.1042057E+00
       21   -1    0    0  502  501   0.0000000000E+00   0.0000000000E+00   7.1339418655E+03   7.1339418655E+03   0.0000000000E+00  0.  1
       21   -1    0    0  501  502   0.0000000000E+00   0.0000000000E+00  -5.7484910184E+00   5.7484910184E+00   0.0000000000E+00  0.  1
       25    1    1    2    0    0  -7.2039327785E+01  -1.2914620677E+02   2.5188189820E+03   2.5262506747E+03   1.2500000000E+02  0.  0
       25    1    1    2    0    0   7.2039327785E+01   1.2914620677E+02   4.6093743924E+03   4.6134396818E+03   1.2500000000E+02  0.  0
</event>
<event>
 4   0  0.3991300E-04  0.4846441E+03  0.7818609E-02  0.1017867E+00
       21   -1    0    0  502  501   0.0000000000E+00   0.0000000000E+00   2.2048250740E+01   2.2048250740E+01   0.0000000000E+00  0. -1
       21   -1    0    0  501  502   0.0000000000E+00   0.0000000000E+00  -2.6632487995E+03   2.6632487995E+03   0.0000000000E+00  0. -1
       25    1    1    2    0    0  -6.0522888887E-01   1.7861759545E+02  -7.3447353103E+02   7.6614683938E+02   1.2500000000E+02  0.  0
       25    1    1    2    0    0   6.0522888887E-01  -1.7861759545E+02  -1.9067270178E+03   1.9191502109E+03   1.2500000000E+02  0.  0
</event>
<event>
 4   0  0.3991300E-04  0.4493063E+03  0.7818609E-02  0.1027929E+00
       21   -1    0    0  502  501   0.0000000000E+00   0.0000000000E+00   4.1578019677E+01   4.1578019677E+01   0.0000000000E+00  0.  1
       21   -1    0    0  501  502   0.0000000000E+00   0.0000000000E+00  -1.2138395579E+03   1.2138395579E+03   0.0000000000E+00  0.  1
       25    1    1    2    0    0  -8.3076985164E+01   1.5764868982E+02  -4.3083301493E+02   4.8269760888E+02   1.2500000000E+02  0.  0
       25    1    1    2    0    0   8.3076985164E+01  -1.5764868982E+02  -7.4142852329E+02   7.7271996869E+02   1.2500000000E+02  0.  0
</event>
<event>
 4   0  0.3991300E-04  0.8771110E+03  0.7818609E-02  0.9454655E-01
       21   -1    0    0  502  501   0.0000000000E+00   0.0000000000E+00   2.6751502766E+03   2.6751502766E+03   0.0000000000E+00  0. -1
       21   -1    0    0  501  502   0.0000000000E+00   0.0000000000E+00  -7.1895376089E+01   7.1895376089E+01   0.0000000000E+00  0. -1
       25    1    1    2    0    0   1.3564448079E+02   2.2757644780E+02   2.3237845618E+03   2.3421763713E+03   1.2500000000E+02  0.  0
       25    1    1    2    0    0  -1.3564448079E+02  -2.2757644780E+02   2.7947033868E+02   4.0486928133E+02   1.2500000000E+02  0.  0
</event>
<event>
 4   0  0.3991300E-04  0.3611413E+03  0.7818609E-02  0.1058133E+00
       21   -1    0    0  502  501   0.0000000000E+00   0.0000000000E+00   1.8195699571E+02   1.8195699571E+02   0.0000000000E+00  0.  1
       21   -1    0    0  501  502   0.0000000000E+00   0.0000000000E+00  -1.7919490443E+02   1.7919490443E+02   0.0000000000E+00  0.  1
       25    1    1    2    0    0   7.7881799130E+01  -4.4510519382E+00  -1.0300294397E+02   1.7977762087E+02   1.2500000000E+02  0.  0
       25    1    1    2    0    0  -7.7881799130E+01   4.4510519382E+00   1.0576503525E+02   1.8137427927E+02   1.2500000000E+02  0.  0
</event>
<event>
 4   0  0.3991300E-04  0.5696144E+03  0.7818609E-02  0.9970532E-01
       21   -1    0    0  502  501   0.0000000000E+00   0.0000000000E+00   1.2500656062E+02   1.2500656062E+02   0.0000000000E+00  0. -1
       21   -1    0    0  501  502   0.0000000000E+00   0.0000000000E+00  -6.4888710901E+02   6.4888710901E+02   0.0000000000E+00  0. -1
       25    1    1    2    0    0   6.2740878799E+01   1.9992988705E+02  -6.2347951019E+01   2.5183455800E+02   1.2500000000E+02  0.  0
       25    1    1    2    0    0  -6.2740878799E+01  -1.9992988705E+02  -4.6153259737E+02   5.2205911163E+02   1.2500000000E+02  0.  0
</event>
<event>
 4   0  0.3991300E-04  0.5239099E+03  0.7818609E-02  0.1007720E+00
       21   -1    0    0  502  501   0.0000000000E+00   0.0000000000E+00   9.6390017726E+01   9.6390017726E+01   0.0000000000E+00  0. -1
       21   -1    0    0  501  502   0.0000000000E+00   0.0000000000E+00  -7.1190357454E+02   7.1190357454E+02   0.0000000000E+00  0. -1
       25    1    1    2    0    0  -1.2003639768E+02  -1.6703358941E+02  -4.6724516987E+02   5.2559680890E+02   1.2500000000E+02  0.  0
       25    1    1    2    0    0   1.2003639768E+02   1.6703358941E+02  -1.4826838695E+02   2.8269678337E+02   1.2500000000E+02  0.  0
</event>
<event>
 4   0  0.3991300E-04  0.4185328E+03  0.7818609E-02  0.1037545E+00
       21   -1    0    0  502  501   0.0000000000E+00   0.0000000000E+00   1.0566256351E+02   1.0566256351E+02   0.0000000000E+00  0.  1
       21   -1    0    0  501  502   0.0000000000E+00   0.0000000000E+00  -4.1445537040E+02   4.1445537040E+02   0.0000000000E+00  0.  1
       25    1    1    2    0    0   1.6747468196E+02   6.8273035306E+00  -1.6501678347E+02   2.6636426186E+02   1.2500000000E+02  0.  0
       25    1    1    2    0    0  -1.6747468196E+02  -6.8273035306E+00  -1.4377602342E+02   2.5375367205E+02   1.2500000000E+02  0.  0
</event>
<event>
 4   0  0.3991300E-04  0.4948115E+03  0.7818609E-02  0.1015142E+00
       21   -1    0    0  502  501   0.0000000000E+00   0.0000000000E+00   6.6171739828E+01   6.6171739828E+01   0.0000000000E+00  0.  1
       21   -1    0    0  501  502   0.0000000000E+00   0.0000000000E+00  -9.2501114929E+02   9.2501114929E+02   0.0000000000E+00  0.  1
       25    1    1    2    0    0   6.3302202086E+01  -1.7120729346E+02  -2.0757119850E+02   3.0336431657E+02   1.2500000000E+02  0.  0
       25    1    1    2    0    0  -6.3302202086E+01   1.7120729346E+02  -6.5126821097E+02   6.8781857255E+02   1.2500000000E+02  0.  0
</event>
<event>
 4   0  0.3991300E-04  0.4403740E+03  0.7818609E-02  0.1030632E+00
       21   -1    0    0  502  501   0.0000000000E+00   0.0000000000E+00   6.7015910707E+01   6.7015910707E+01   0.0000000000E+00  0. -1
       21   -1    0    0  501  502   0.0000000000E+00   0.0000000000E+00  -7.2344499909E+02   7.2344499909E+02   0.0000000000E+00  0. -1
       25    1    1    2    0    0   1.8010826455E+02  -1.3856091268E+01  -3.5521967457E+02   4.1765655200E+02   1.2500000000E+02  0.  0
       25    1    1    2    0    0  -1.8010826455E+02   1.3856091268E+01  -3.0120941381E+02   3.7280435780E+02   1.2500000000E+02  0.  0
</event>
<event>
 4   0  0.3991300E-04  0.4494801E+03  0.7818609E-02  0.1027877E+00
       21   -1    0    0  502  501   0.0000000000E+00   0.0000000000E+00   3.1029542794E+02   3.1029542794E+02   0.0000000000E+00  0.  1
       21   -1    0    0  501  502   0.0000000000E+00   0.0000000000E+00  -1.6277423621E+02   1.6277423621E+02   0.0000000000E+00  0.  1
       25    1    1    2    0    0  -1.6472934978E+01   6.9808486002E+01   2.5525960177E+02   2.9313315507E+02   1.2500000000E+02  0.  0
       25    1    1    2    0    0   1.6472934978E+01  -6.9808486002E+01  -1.0773841004E+02   1.7993650909E+02   1.2500000000E+02  0.  0
</event>
<event>
 4   0  0.3991300E-04  0.6283343E+03  0.7818609E-02  0.9848305E-01
       21   -1    0    0  502  501   0.0000000000E+00   0.0000000000E+00   5.3616630095E+03   5.3616630095E+03   0.0000000000E+00  0. -1
       21   -1    0    0  501  502   0.0000000000E+00   0.0000000000E+00  -1.8408654405E+01   1.8408654405E+01   0.0000000000E+00  0.  1
       25    1    1    2    0    0  -2.5274365238E+02  -7.2131446794E+00   1.4868937585E+03   1.5134098692E+03   1.2500000000E+02  0.  0
       25    1    1    2    0    0   2.5274365238E+02   7.2131446794E+00   3.8563605966E+03   3.8666617947E+03   1.2500000000E+02  0.  0
</event>
<event>
 4   0  0.3991300E-04  0.8942879E+03  0.7818609E-02  0.9432750E-01
       21   -1    0    0  502  501   0.0000000000E+00   0.0000000000E+00   1.2062315604E+02   1.2062315604E+02   0.0000000000E+00  0. -1
       21   -1    0    0  501  502   0.0000000000E+00   0.0000000000E+00  -1.6575401170E+03   1.6575401170E+03   0.0000000000E+00  0. -1
       25    1    1    2    0    0  -1.6571097002E+02  -3.9272444294E+02  -6.6668051972E+02   8.0111205773E+02   1.2500000000E+02  0.  0
       25    1    1    2    0    0   1.6571097002E+02   3.9272444294E+02  -8.7023644122E+02   9.7705121529E+02   1.2500000000E+02  0.  0
</event>
<event>
 4   0  0.3991300E-04  0.5885680E+03  0.7818609E-02  0.9929412E-01
       21   -1    0    0  502  501   0.0000000000E+00   0.0000000000E+00   3.4919850818E+02   3.4919850818E+02   0.0000000000E+00  0.  1
       21   -1    0    0  501  502   0.0000000000E+00   0.0000000000E+00  -2.4800525995E+02   2.4800525995E+02   0.0000000000E+00  0.  1
       25    1    1    2    0    0  -1.0998350621E+02   1.1631890410E+02   2.6668044544E+02   3.3521622733E+02   1.2500000000E+02  0.  0
       25    1    1    2    0    0   1.0998350621E+02  -1.1631890410E+02  -1.6548719721E+02   2.6198754079E+02   1.2500000000E+02  0.  0
</event>
<event>
 4   0  0.3991300E-04  0.5832139E+03  0.7818609E-02  0.9940857E-01
       21   -1    0    0  502  501   0.0000000000E+00   0.0000000000E+00   2.7203874895E+02   2.7203874895E+02   0.0000000000E+00  0.  1
       21   -1    0    0  501  502   0.0000000000E+00   0.0000000000E+00  -3.1258274844E+02   3.1258274844E+02   0.0000000000E+00  0.  1
       25    1    1    2    0    0  -2.6658408005E+01  -2.0724137226E+02  -1.8112723513E+02   3.0346619646E+02   1.2500000000E+02  0.  0
       25    1    1    2    0    0   2.6658408005E+01   2.0724137226E+02   1.4058323564E+02   2.8115530092E+02   1.2500000000E+02  0.  0
</event>
<event>
 4   0  0.3991300E-04  0.3537021E+03  0.7818609E-02  0.1061106E+00
       21   -1    0    0  502  501   0.0000000000E+00   0.0000000000E+00   3.0467550122E+00   3.0467550122E+00   0.0000000000E+00  0. -1
       21   -1    0    0  501  502   0.0000000000E+00   0.0000000000E+00  -1.0265442399E+04   1.0265442399E+04   0.0000000000E+00  0. -1
       25    1    1    2    0    0  -9.4323828105E+01  -7.0574525078E+01  -6.3538120274E+03   6.3561332607E+03   1.2500000000E+02  0.  0
       25    1    1    2    0    0   9.4323828105E+01   7.0574525078E+01  -3.9085836163E+03   3.9123558930E+03   1.2500000000E+02  0.  0
</event>
<event>
 4   0  0.3991300E-04  0.3736375E+03  0.7818609E-02  0.1053311E+00
       21   -1    0    0  502  501   0.0000000000E+00   0.0000000000E+00   1.4497597190E+01   1.4497597190E+01   0.0000000000E+00  0.  1
       21   -1    0    0  501  502   0.0000000000E+00   0.0000000000E+00  -2.4073818312E+03   2.4073818312E+03   0.0000000000E+00  0.  1
       25    1    1    2    0    0  -4.9404720368E+01   1.2722332778E+02  -1.0312299897E+03   1.0477055375E+03   1.2500000000E+02  0.  0
       25    1    1    2    0    0   4.9404720368E+01  -1.2722332778E+02  -1.3616542443E+03   1.3741738909E+03   1.2500000000E+02  0.  0
</event>
<event>
 4   0  0.3991300E-04  0.3284637E+03  0.7818609E-02  0.1071819E+00
       21   -1    0    0  502  501   0.0000000000E+00   0.0000000000E+00   6.8759013297E+01   6.8759013297E+01   0.0000000000E+00  0. -1
       21   -1    0    0  501  502   0.0000000000E+00   0.0000000000E+00  -3.9227004602E+02   3.9227004602E+02   0.0000000000E+00  0. -1
       25    1    1    2    0    0   9.2151079743E+01   2.8459346282E+01  -2.2523366401E+02   2.7505810167E+02   1.2500000000E+02  0.  0
       25    1    1    2    0    0  -9.2151079743E+01  -2.8459346282E+01  -9.8277368711E+01   1.8597095765E+02   1.2500000000E+02  0.  0
</event>
<event>
 4   0  0.3991300E-04  0.5035941E+03  0.7818609E-02  0.1012845E+00
       21   -1    0    0  502  501   0.0000000000E+00   0.0000000000E+00   1.6575816343E+02   1.6575816343E+02   0.0000000000E+00  0. -1
       21   -1    0    0  501  502   0.0000000000E+00   0.0000000000E+00  -3.8249555894E+02   3.8249555894E+02   0.0000000000E+00  0. -1
       25    1    1    2    0    0   1.4188010882E+02   1.2323926686E+02   1.3149247957E+01   2.2608800255E+02   1.2500000000E+02  0.  0
       25    1    1    2    0    0  -1.4188010882E+02  -1.2323926686E+02  -2.2988664347E+02   3.2216571981E+02   1.2500000000E+02  0.  0
</event>
<event>
 4   0  0.3991300E-04  0.4397059E+03  0.7818609E-02  0.1030837E+00
       21   -1    0    0  502  501   0.0000000000E+00   0.0000000000E+00   9.3702575434E+01   9.3702575434E+01   0.0000000000E+00  0.  1
       21   -1    0    0  501  502   0.0000000000E+00   0.0000000000E+00  -5.1583778287E+02   5.1583778287E+02   0.0000000000E+00  0.  1
       25    1    1    2    0    0  -1.5154545572E+01   1.5148026959E+02  -7.5708729170E+01   2.1102782755E+02   1.2500000000E+02  0.  0
       25    1    1    2    0    0   1.5154545572E+01  -1.5148026959E+02  -3.4642647826E+02   3.9851253076E+02   1.2500000000E+02  0.  0
</event>
<event>
 4   0  0.3991300E-04  0.7390971E+03  0.7818609E-02  0.9652612E-01
       21   -1    0    0  502  501   0.0000000000E+00   0.0000000000E+00   8.1514854711E+01   8.1514854711E+01   0.0000000000E+00  0. -1
       21   -1    0    0  501  502   0.0000000000E+00   0.0000000000E+00  -1.6753525344E+03   1.6753525344E+03   0.0000000000E+00  0. -1
       25    1    1    2    0    0   1.8154520713E+02  -2.5439734808E+01  -1.4993962318E+03   1.5157242171E+03   1.2500000000E+02  0.  0
       25    1    1    2    0    0  -1.8154520713E+02   2.5439734808E+01  -9.4441447912E+01   2.4114317204E+02   1.2500000000E+02  0.  0
</event>
<event>
 4   0  0.3991300E-04  0.3776287E+03  0.7818609E-02  0.1051814E+00
       21   -1    0    0  502  501   0.0000000000E+00   0.0000000000E+00   3.5809830532E+02   3.5809830532E+02   0.0000000000E+00  0.  1
       21   -1    0    0  501  502   0.0000000000E+00   0.0000000000E+00  -9.9556052942E+01   9.9556052942E+01   0.0000000000E+00  0.  1
       25    1    1    2    0    0   1.0581448966E+02   3.1698225418E+01   2.2070497552E+01   1.6826642737E+02   1.2500000000E+02  0.  0
       25    1    1    2    0    0  -1.0581448966E+02  -3.1698225418E+01   2.3647175482E+02   2.8938793089E+02   1.2500000000E+02  0.  0
</event>
<event>
 4   0  0.3991300E-04  0.6506934E+03  0.7818609E-02  0.9805479E-01
       21   -1    0    0  502  501   0.0000000000E+00   0.0000000000E+00   1.6480752948E+02   1.6480752948E+02   0.0000000000E+00  0. -1
       21   -1    0    0  501  502   0.0000000000E+00   0.0000000000E+00  -6.4226726511E+02   6.4226726511E+02   0.0000000000E+00  0. -1
       25    1    1    2    0    0  -1.0800841019E+02  -3.0587053711E+01   1.0683982735E+02   1.9910081174E+02   1.2500000000E+02  0.  0
       25    1    1    2    0    0   1.0800841019E+02   3.0587053711E+01  -5.8429956298E+02   6.0797398285E+02   1.2500000000E+02  0.  0
</event>
<event>
 4   0  0.3991300E-04  0.4899212E+03  0.7818609E-02  0.1016444E+00
       21   -1    0    0  502  501   0.0000000000E+00   0.0000000000E+00   1.1879321780E+02   1.1879321780E+02   0.0000000000E+00  0.  1
       21   -1    0    0  501  502   0.0000000000E+00   0.0000000000E+00  -5.0512735746E+02   5.0512735746E+02   0.0000000000E+00  0.  1
       25    1    1    2    0    0   1.7633260096E+02   1.0875990218E+02  -2.4180792204E+02   3.4207889974E+02   1.2500000000E+02  0.  0
       25    1    1    2    0    0  -1.7633260096E+02  -1.0875990218E+02  -1.4452621762E+02   2.8184167553E+02   1.2500000000E+02  0.  0
</event>
<event>
 4   0  0.3991300E-04  0.5034342E+03  0.7818609E-02  0.1012886E+00
       21   -1    0    0  502  501   0.0000000000E+00   0.0000000000E+00   2.5793747833E+01   2.5793747833E+01   0.0000000000E+00  0.  1
       21   -1    0    0  501  502   0.0000000000E+00   0.0000000000E+00  -2.4564676917E+03   2.4564676917E+03   0.0000000000E+00  0.  1
       25    1    1    2    0    0  -1.8119302570E+02  -1.7442636878E+01  -6.1953590239E+02   6.5771186130E+02   1.2500000000E+02  0.  0
       25    1    1    2    0    0   1.8119302570E+02   1.7442636878E+01  -1.8111380415E+03   1.8245495782E+03   1.2500000000E+02  0.  0
</event>
<event>
 4   0  0.3991300E-04  0.5480020E+03  0.7818609E-02  0.1001957E+00
       21   -1    0    0  502  501   0.0000000000E+00   0.0000000000E+00   1.4326675925E+03   1.4326675925E+03   0.0000000000E+00  0. -1
       21   -1    0    0  501  502   0.0000000000E+00   0.0000000000E+00  -5.2403322301E+01   5.2403322301E+01   0.0000000000E+00  0. -1
       25    1    1    2    0    0   4.3821117704E+01   2.3902407416E+02   7.4424639445E+02   7.9283068434E+02   1.2500000000E+02  0.  0
       25    1    1    2    0    0  -4.3821117704E+01  -2.3902407416E+02   6.3601787570E+02   6.9224023041E+02   1.2500000000E+02  0.  0
</event>
<event>
 4   0  0.3991300E-04  0.6822155E+03  0.7818609E-02  0.9748139E-01
       21   -1    0    0  502  501   0.0000000000E+00   0.0000000000E+00   1.2534567577E+03   1.2534567577E+03   0.0000000000E+00  0. -1
       21   -1    0    0  501  502   0.0000000000E+00   0.0000000000E+00  -9.2826902274E+01   9.2826902274E+01   0.0000000000E+00  0. -1
       25    1    1    2    0    0   2.9217079885E+02   5.4653041061E+01   3.6075461128E+02   4.8385909122E+02   1.2500000000E+02  0.  0
       25    1    1    2    0    0  -2.9217079885E+02  -5.4653041061E+01   7.9987524417E+02   8.6242456877E+02   1.2500000000E+02  0.  0
</event>
<event>
 4   0  0.3991300E-04  0.3230367E+03  0.7818609E-02  0.1074260E+00
       21   -1    0    0  502  501   0.0000000000E+00   0.0000000000E+00   3.4339045049E+01   3.4339045049E+01   0.0000000000E+00  0.  1
       21   -1    0    0  501  502   0.0000000000E+00   0.0000000000E+00  -7.5972354818E+02   7.5972354818E+02   0.0000000000E+00  0.  1
       25    1    1    2    0    0  -4.7011059680E+01   4.6424754567E+00  -5.8571269556E+02   6.0076281015E+02   1.2500000000E+02  0.  0
       25    1    1    2    0    0   4.7011059680E+01  -4.6424754567E+00  -1.3967180757E+02   1.9329978308E+02   1.2500000000E+02  0.  0
</event>
<event>
 4   0  0.3991300E-04  0.5379141E+03  0.7818609E-02  0.1004331E+00
       21   -1    0    0  502  501   0.0000000000E+00   0.0000000000E+00   1.4098177455E+03   1.4098177455E+03   0.0000000000E+00  0. -1
       21   -1    0    0  501  502   0.0000000000E+00   0.0000000000E+00  -5.1310095937E+01   5.1310095937E+01   0.0000000000E+00  0. -1
       25    1    1    2    0    0  -1.0519646166E+02   1.6150850353E+02   1.0591609279E+03   1.0837888002E+03   1.2500000000E+02  0.  0
       25    1    1    2    0    0   1.0519646166E+02  -1.6150850353E+02   2.9934672161E+02   3.7733904118E+02   1.2500000000E+02  0.  0
</event>
<event>
 4   0  0.3991300E-04  0.1241197E+04  0.7818609E-02  0.9077542E-01
       21   -1    0    0  502  501   0.0000000000E+00   0.0000000000E+00   7.8524475943E+01   7.8524475943E+01   0.0000000000E+00  0.  1
       21   -1    0    0  501  502   0.0000000000E+00   0.0000000000E+00  -4.9047459821E+03   4.9047459821E+03   0.0000000000E+00  0.  1
       25    1    1    2    0    0   4.2047639956E+02   2.4428055835E+02  -9.4867044023E+02   1.0733471004E+03   1.2500000000E+02  0.  0
       25    1    1    2    0    0  -4.2047639956E+02  -2.4428055835E+02  -3.8775510659E+03   3.9099233576E+03   1.2500000000E+02  0.  0
</event>
<event>
 4   0  0.3991300E-04  0.3436793E+03  0.7818609E-02  0.1065240E+00
       21   -1    0    0  502  501   0.0000000000E+00   0.0000000000E+00   2.9938338953E+01   2.9938338953E+01   0.0000000000E+00  0. -1
       21   -1    0    0  501  502   0.0000000000E+00   0.0000000000E+00  -9.8632273002E+02   9.8632273002E+02   0.0000000000E+00  0. -1
       25    1    1    2    0    0   7.0394033975E+00  -9.2905276180E+01  -6.9189422003E+02   7.0924153520E+02   1.2500000000E+02  0.  0
       25    1    1    2    0    0  -7.0394033975E+00   9.2905276180E+01  -2.6449017103E+02   3.0701953377E+02   1.2500000000E+02  0.  0
</event>
<event>
 4   0  0.3991300E-04  0.5060372E+03  0.7818609E-02  0.1012215E+00
       21   -1    0    0  502  501   0.0000000000E+00   0.0000000000E+00   1.6346540010E+01   1.6346540010E+01   0.0000000000E+00  0. -1
       21   -1    0    0  501  502   0.0000000000E+00   0.0000000000E+00  -3.9163276824E+03   3.9163276824E+03   0.0000000000E+00  0. -1
       25    1    1    2    0    0  -1.7155379620E+02  -1.0873151804E+02  -1.2933019520E+03   1.3151076713E+03   1.2500000000E+02  0.  0
       25    1    1    2    0    0   1.7155379620E+02   1.0873151804E+02  -2.6066791904E+03   2.6175665511E+03   1.2500000000E+02  0.  0
</event>
<event>
 4   0  0.3991300E-04  0.4136615E+03  0.7818609E-02  0.1039149E+00
       21   -1    0    0  502  501   0.0000000000E+00   0.0000000000E+00   4.7039413126E+02   4.7039413126E+02   0.0000000000E+00  0. -1
       21   -1    0    0  501  502   0.0000000000E+00   0.0000000000E+00  -9.0942791362E+01   9.0942791362E+01   0.0000000000E+00  0. -1
       25    1    1    2    0    0  -2.1735129416E+00   1.0243408827E+02   3.6485958412E+02   3.9905511238E+02   1.2500000000E+02  0.  0
       25    1    1    2    0    0   2.1735129416E+00  -1.0243408827E+02   1.4591755779E+01   1.6228181024E+02   1.2500000000E+02  0.  0
</event>
<event>
 4   0  0.3991300E-04  0.4227069E+03  0.7818609E-02  0.1036189E+00
       21   -1    0    0  502  501   0.0000000000E+00   0.0000000000E+00   7.9051846296E+01   7.9051846296E+01   0.0000000000E+00  0. -1
       21   -1    0    0  501  502   0.0000000000E+00   0.0000000000E+00  -5.6507567873E+02   5.6507567873E+02   0.0000000000E+00  0. -1
       25    1    1    2    0    0   1.5239910115E+02  -7.6219985295E+01  -2.4790322568E+02   3.2575448039E+02   1.2500000000E+02  0.  0
       25    1    1    2    0    0  -1.5239910115E+02   7.6219985295E+01  -2.3812060676E+02   3.1837304464E+02   1.2500000000E+02  0.  0
</event>
<event>
 4   0  0.3991300E-04  0.7028242E+03  0.7818609E-02  0.9712415E-01
       21   -1    0    0  502  501   0.0000000000E+00   0.0000000000E+00   1.2732982536E+02   1.2732982536E+02   0.0000000000E+00  0. -1
       21   -1    0    0  501  502   0.0000000000E+00   0.0000000000E+00  -9.6984699844E+02   9.6984699844E+02   0.0000000000E+00  0. -1
       25    1    1    2    0    0  -1.0064444946E+02  -3.7352207508E+00   6.6748967353E+01   1.7384959512E+02   1.2500000000E+02  0.  0
       25    1    1    2    0    0   1.0064444946E+02   3.7352207508E+00  -9.0926614043E+02   9.2332722868E+02   1.2500000000E+02  0.  0
</event>
<event>
 4   0  0.3991300E-04  0.5049443E+03  0.7818609E-02  0.1012496E+00
       21   -1    0    0  502  501   0.0000000000E+00   0.0000000000E+00   1.6211667920E+01   1.6211667920E+01   0.0000000000E+00  0.  1
       21   -1    0    0  501  502   0.0000000000E+00   0.0000000000E+00  -3.9318709375E+03   3.9318709375E+03   0.0000000000E+00  0.  1
       25    1    1    2    0    0   2.3840103828E+01  -2.0772763942E+02  -1.4393001073E+03   1.4597701605E+03   1.2500000000E+02  0.  0
       25    1    1    2    0    0  -2.3840103828E+01   2.0772763942E+02  -2.4763591623E+03   2.4883124449E+03   1.2500000000E+02  0.  0
</event>
<event>
 4   0  0.3991300E-04  0.5655965E+03  0.7818609E-02  0.9979471E-01
       21   -1    0    0  502  501   0.0000000000E+00   0.0000000000E+00   1.9040065929E+02   1.9040065929E+02   0.0000000000E+00  0.  1
       21   -1    0    0  501  502   0.0000000000E+00   0.0000000000E+00  -4.2003453268E+02   4.2003453268E+02   0.0000000000E+00  0.  1
       25    1    1    2    0    0   1.0421496794E+02   2.2934503850E+02  -1.4701387719E+02   3.1732946020E+02   1.2500000000E+02  0.  0
       25    1    1    2    0    0  -1.0421496794E+02  -2.2934503850E+02  -8.2619996196E+01   2.9310573177E+02   1.2500000000E+02  0.  0
</event>
<event>
 4   0  0.3991300E-04  0.6266038E+03  0.7818609E-02  0.9851699E-01
       21   -1    0    0  502  501   0.0000000000E+00   0.0000000000E+00   2.6604808814E+02   2.6604808814E+02   0.0000000000E+00  0. -1
       21   -1    0    0  501  502   0.0000000000E+00   0.0000000000E+00  -3.6894868709E+02   3.6894868709E+02   0.0000000000E+00  0. -1
       25    1    1    2    0    0   1.2627320243E+02  -2.1122835846E+02  -2.0166101914E+02   3.4183988607E+02   1.2500000000E+02  0.  0
       25    1    1    2    0    0  -1.2627320243E+02   2.1122835846E+02   9.8760420195E+01   2.9315688917E+02   1.2500000000E+02  0.  0
</event>
<event>
 4   0  0.3991300E-04  0.5388291E+03  0.7818609E-02  0.1004113E+00
       21   -1    0    0  502  501   0.0000000000E+00   0.0000000000E+00   3.8220093795E+02   3.8220093795E+02   0.0000000000E+00  0.  1
       21   -1    0    0  501  502   0.0000000000E+00   0.0000000000E+00  -1.8991110663E+02   1.8991110663E+02   0.0000000000E+00  0.  1
       25    1    1    2    0    0   1.6653887606E+01  -2.6064996938E+00   3.4891520331E+02   3.7101342956E+02   1.2500000000E+02  0.  0
       25    1    1    2    0    0  -1.6653887606E+01   2.6064996938E+00  -1.5662537199E+02   2.0109861503E+02   1.2500000000E+02  0.  0
</event>
<event>
 4   0  0.3991300E-04  0.3787858E+03  0.7818609E-02  0.1051383E+00
       21   -1    0    0  502  501   0.0000000000E+00   0.0000000000E+00   4.5210439752E+01   4.5210439752E+01   0.0000000000E+00  0. -1
       21   -1    0    0  501  502   0.0000000000E+00   0.0000000000E+00  -7.9339338409E+02   7.9339338409E+02   0.0000000000E+00  0. -1
       25    1    1    2    0    0  -1.3962432704E+02   1.9756711728E+01  -3.3212115844E+02   3.8185696831E+02   1.2500000000E+02  0.  0
       25    1    1    2    0    0   1.3962432704E+02  -1.9756711728E+01  -4.1606178589E+02   4.5674685553E+02   1.2500000000E+02  0.  0
</event>
<event>
 4   0  0.3991300E-04  0.3040674E+03  0.7818609E-02  0.1083225E+00
       21   -1    0    0  502  501   0.0000000000E+00   0.0000000000E+00   6.4730007667E+02   6.4730007667E+02   0.0000000000E+00  0. -1
       21   -1    0    0  501  502   0.0000000000E+00   0.0000000000E+00  -3.5708703379E+01   3.5708703379E+01   0.0000000000E+00  0. -1
       25    1    1    2    0    0   2.9774742455E+00   1.9360461533E+01   4.9514135818E+02   5.1105152128E+02   1.2500000000E+02  0.  0
       25    1    1    2    0    0  -2.9774742455E+00  -1.9360461533E+01   1.1645001511E+02   1.7195725877E+02   1.2500000000E+02  0.  0
</event>
<event>
 4   0  0.3991300E-04  0.3176167E+03  0.7818609E-02  0.1076751E+00
       21   -1    0    0  502  501   0.0000000000E+00   0.0000000000E+00   7.7316917534E+02   7.7316917534E+02   0.0000000000E+00  0. -1
       21   -1    0    0  501  502   0.0000000000E+00   0.0000000000E+00  -3.2619110505E+01   3.2619110505E+01   0.0000000000E+00  0. -1
       25    1    1    2    0    0   3.9072065350E+01  -8.1219088951E+01   2.7294198195E+02   3.1344136965E+02   1.2500000000E+02  0.  0
       25    1    1    2    0    0  -3.9072065350E+01   8.1219088951E+01   4.6760808289E+02   4.9234691619E+02   1.2500000000E+02  0.  0
</event>
<event>
 4   0  0.3991300E-04  0.4582248E+03  0.7818609E-02  0.1025297E+00
       21   -1    0    0  502  501   0.0000000000E+00   0.0000000000E+00   1.1828240861E+02   1.1828240861E+02   0.0000000000E+00  0.  1
       21   -1    0    0  501  502   0.0000000000E+00   0.0000000000E+00  -4.4378942922E+02   4.4378942922E+02   0.0000000000E+00  0.  1
       25    1    1    2    0    0  -1.7216399956E+02   2.4254714716E+00  -5.8517767461E+01   2.2067091962E+02   1.2500000000E+02  0.  0
       25    1    1    2    0    0   1.7216399956E+02  -2.4254714716E+00  -2.6698925316E+02   3.4140091821E+02   1.2500000000E+02  0.  0
</event>
<event>
 4   0  0.3991300E-04  0.5268640E+03  0.7818609E-02  0.1006996E+00
       21   -1    0    0  502  501   0.0000000000E+00   0.0000000000E+00   1.5687460967E+02   1.5687460967E+02   0.0000000000E+00  0.  1
       21   -1    0    0  501  502   0.0000000000E+00   0.0000000000E+00  -4.4236873716E+02   4.4236873716E+02   0.0000000000E+00  0.  1
       25    1    1    2    0    0  -1.0039467051E+02   4.6980397901E+01  -3.7440711466E+02   4.0999016471E+02   1.2500000000E+02  0.  0
       25    1    1    2    0    0   1.0039467051E+02  -4.6980397901E+01   8.8912987170E+01   1.8925318212E+02   1.2500000000E+02  0.  0
</event>
<event>
 4   0  0.3991300E-04  0.6170204E+03  0.7818609E-02  0.9870710E-01
       21   -1    0    0  502  501   0.0000000000E+00   0.0000000000E+00   2.0277145582E+01   2.0277145582E+01   0.0000000000E+00  0.  1
       21   -1    0    0  501  502   0.0000000000E+00   0.0000000000E+00  -4.6938824146E+03   4.6938824146E+03   0.0000000000E+00  0.  1
       25    1    1    2    0    0   1.5752395863E+02   1.4168104657E+02  -9.1428382486E+02   9.4679840985E+02   1.2500000000E+02  0.  0
       25    1    1    2    0    0  -1.5752395863E+02  -1.4168104657E+02  -3.7593214441E+03   3.7673611503E+03   1.2500000000E+02  0.  0
</event>
<event>
 4   0  0.3991300E-04  0.5327955E+03  0.7818609E-02  0.1005556E+00
       21   -1    0    0  502  501   0.0000000000E+00   0.0000000000E+00   2.6978202133E+02   2.6978202133E+02   0.0000000000E+00  0.  1
       21   -1    0    0  501  502   0.0000000000E+00   0.0000000000E+00  -2.6305591544E+02   2.6305591544E+02   0.0000000000E+00  0.  1
       25    1    1    2    0    0  -2.7061551234E+01   6.7872922138E+01  -2.2026982603E+02   2.6359601168E+02   1.2500000000E+02  0.  0
       25    1    1    2    0    0   2.7061551234E+01  -6.7872922138E+01   2.2699593193E+02   2.6924192509E+02   1.2500000000E+02  0.  0
</event>
<event>
 4   0  0.3991300E-04  0.6017670E+03  0.7818609E-02  0.9901747E-01
       21   -1    0    0  502  501   0.0000000000E+00   0.0000000000E+00   1.5929498416E+02   1.5929498416E+02   0.0000000000E+00  0. -1
       21   -1    0    0  501  502   0.0000000000E+00   0.0000000000E+00  -5.6832214148E+02   5.6832214148E+02   0.0000000000E+00  0. -1
       25    1    1    2    0    0   5.6049803267E+00  -1.9381554086E+02   2.9040322528E+01   2.3251713918E+02   1.2500000000E+02  0.  0
       25    1    1    2    0    0  -5.6049803267E+00   1.9381554086E+02  -4.3806747985E+02   4.9509998645E+02   1.2500000000E+02  0.  0
</event>
<event>
 4   0  0.3991300E-04  0.4090521E+03  0.7818609E-02  0.1040690E+00
       21   -1    0    0  502  501   0.0000000000E+00   0.0000000000E+00   1.8714626447E+03   1.8714626447E+03   0.0000000000E+00  0. -1
       21   -1    0    0  501  502   0.0000000000E+00   0.0000000000E+00  -2.2351981088E+01   2.2351981088E+01   0.0000000000E+00  0. -1
       25    1    1    2    0    0   1.5508888405E+02  -4.2835327151E+01   8.4193376283E+02   8.6623604647E+02   1.2500000000E+02  0.  0
       25    1    1    2    0    0  -1.5508888405E+02   4.2835327151E+01   1.0071769007E+03   1.0275785793E+03   1.2500000000E+02  0.  0
</event>
<event>
 4   0  0.3991300E-04  0.4723447E+03  0.7818609E-02  0.1021261E+00
       21   -1    0    0  502  501   0.0000000000E+00   0.0000000000E+00   3.2809496158E+01   3.2809496158E+01   0.0000000000E+00  0. -1
       21   -1    0    0  501  502   0.0000000000E+00   0.0000000000E+00  -1.7000373614E+03   1.7000373614E+03   0.0000000000E+00  0. -1
       25    1    1    2    0    0   1.9528907092E+02   4.4878378143E+01  -8.3615358670E+02   8.6886691190E+02   1.2500000000E+02  0.  0
       25    1    1    2    0    0  -1.9528907092E+02  -4.4878378143E+01  -8.3107427856E+02   8.6397994567E+02   1.2500000000E+02  0.  0
</event>
<event>
 4   0  0.3991300E-04  0.4025341E+03  0.7818609E-02  0.1042906E+00
       21   -1    0    0  502  501   0.0000000000E+00   0.0000000000E+00   7.6040343453E+01   7.6040343453E+01   0.0000000000E+00  0. -1
       21   -1    0    0  501  502   0.0000000000E+00   0.0000000000E+00  -5.3272290228E+02   5.3272290228E+02   0.0000000000E+00  0. -1
       25    1    1    2    0    0   9.2187181889E+01   9.8881546119E+01  -1.0541043341E+02   2.1216125032E+02   1.2500000000E+02  0.  0
       25    1    1    2    0    0  -9.2187181889E+01  -9.8881546119E+01  -3.5127212542E+02   3.9660199541E+02   1.2500000000E+02  0.  0
</event>
<event>
 4   0  0.3991300E-04  0.4057695E+03  0.7818609E-02  0.1041800E+00
       21   -1    0    0  502  501   0.0000000000E+00   0.0000000000E+00   9.9441525121E+02   9.9441525121E+02   0.0000000000E+00  0. -1
       21   -1    0    0  501  502   0.0000000000E+00   0.0000000000E+00  -4.1393391548E+01   4.1393391548E+01   0.0000000000E+00  0. -1
       25    1    1    2    0    0  -9.9499115195E+01  -1.2457026286E+02   5.0440386365E+02   5.4356791846E+02   1.2500000000E+02  0.  0
       25    1    1    2    0    0   9.9499115195E+01   1.2457026286E+02   4.4861799601E+02   4.9224072430E+02   1.2500000000E+02  0.  0
</event>
<event>
 4   0  0.3991300E-04  0.4163950E+03  0.7818609E-02  0.1038246E+00
       21   -1    0    0  502  501   0.0000000000E+00   0.0000000000E+00   1.2190664313E+02   1.2190664313E+02   0.0000000000E+00  0.  1
       21   -1    0    0  501  502   0.0000000000E+00   0.0000000000E+00  -3.5556880115E+02   3.5556880115E+02   0.0000000000E+00  0.  1
       25    1    1    2    0    0   7.3175338720E+01  -1.2138360851E+02  -2.1701117779E+02   2.8776285705E+02   1.2500000000E+02  0.  0
       25    1    1    2    0    0  -7.3175338720E+01   1.2138360851E+02  -1.6650980221E+01   1.8971258723E+02   1.2500000000E+02  0.  0
</event>
<event>
 4   0  0.3991300E-04  0.4523805E+03  0.7818609E-02  0.1027015E+00
       21   -1    0    0  502  501   0.0000000000E+00   0.0000000000E+00   1.6381577921E+03   1.6381577921E+03   0.0000000000E+00  0.  1
       21   -1    0    0  501  502   0.0000000000E+00   0.0000000000E+00  -3.1231444219E+01   3.1231444219E+01   0.0000000000E+00  0.  1
       25    1    1    2    0    0   1.3744821899E+01   5.2277072220E+01   1.4699075055E+03   1.4762028611E+03   1.2500000000E+02  0.  0
       25    1    1    2    0    0  -1.3744821899E+01  -5.2277072220E+01   1.3701884245E+02   1.9318637529E+02   1.2500000000E+02  0.  0
</event>
<event>
 4   0  0.3991300E-04  0.1180088E+04  0.7818609E-02  0.9130466E-01
       21   -1    0    0  502  501   0.0000000000E+00   0.0000000000E+00   7.9755967801E+02   7.9755967801E+02   0.0000000000E+00  0. -1
       21   -1    0    0  501  502   0.0000000000E+00   0.0000000000E+00  -4.3652180273E+02   4.3652180273E+02   0.0000000000E+00  0. -1
       25    1    1    2    0    0  -1.9194174415E+02   8.7907624286E+01   7.4168797648E+02   7.8121407950E+02   1.2500000000E+02  0.  0
       25    1    1    2    0    0   1.9194174415E+02  -8.7907624286E+01  -3.8065010120E+02   4.5286740124E+02   1.2500000000E+02  0.  0
</event>
<event>
 4   0  0.3991300E-04  0.4375553E+03  0.7818609E-02  0.1031500E+00
       21   -1    0    0  502  501   0.0000000000E+00   0.0000000000E+00   6.9348364564E+01   6.9348364564E+01   0.0000000000E+00  0. -1
       21   -1    0    0  501  502   0.0000000000E+00   0.0000000000E+00  -6.9019165529E+02   6.9019165529E+02   0.0000000000E+00  0. -1
       25    1    1    2    0    0  -1.5821615192E+02  -8.1861575923E+01  -3.4943029288E+02   4.1165543592E+02   1.2500000000E+02  0.  0
       25    1    1    2    0    0   1.5821615192E+02   8.1861575923E+01  -2.7141299785E+02   3.4788458393E+02   1.2500000000E+02  0.  0
</event>
<event>
 4   0  0.3991300E-04  0.6823754E+03  0.7818609E-02  0.9747857E-01
       21   -1    0    0  502  501   0.0000000000E+00   0.0000000000E+00   6.4719789919E+02   6.4719789919E+02   0.0000000000E+00  0.  1
       21   -1    0    0  501  502   0.0000000000E+00   0.0000000000E+00  -1.7986621463E+02   1.7986621463E+02   0.0000000000E+00  0.  1
       25    1    1    2    0    0  -2.3525238136E+02  -4.4346171967E+01   4.8637995066E+02   5.5632789100E+02   1.2500000000E+02  0.  0
       25    1    1    2    0    0   2.3525238136E+02   4.4346171967E+01  -1.9048266102E+01   2.7073622282E+02   1.2500000000E+02  0.  0
</event>
<event>
 4   0  0.3991300E-04  0.5126032E+03  0.7818609E-02  0.1010541E+00
       21   -1    0    0  502  501   0.0000000000E+00   0.0000000000E+00   1.1060978344E+03   1.1060978344E+03   0.0000000000E+00  0.  1
       21   -1    0    0  501  502   0.0000000000E+00   0.0000000000E+00  -5.9389421436E+01   5.9389421436E+01   0.0000000000E+00  0.  1
       25    1    1    2    0    0  -3.9239574337E+01   2.2026228586E+02   5.3064826312E+02   5.8929432198E+02   1.2500000000E+02  0.  0
       25    1    1    2    0    0   3.9239574337E+01  -2.2026228586E+02   5.1606014986E+02   5.7619293387E+02   1.2500000000E+02  0.  0
</event>
<event>
 4   0  0.3991300E-04  0.8581625E+03  0.7818609E-02  0.9479447E-01
       21   -1    0    0  502  501   0.0000000000E+00   0.0000000000E+00   8.6870250576E+01   8.6870250576E+01   0.0000000000E+00  0.  1
       21   -1    0    0  501  502   0.0000000000E+00   0.0000000000E+00  -2.1193757676E+03   2.1193757676E+03   0.0000000000E+00  0.  1
       25    1    1    2    0    0   3.3965398056E+02   3.8078398010E+01  -4.3185641224E+02   5.6474751146E+02   1.2500000000E+02  0.  0
       25    1    1    2    0    0  -3.3965398056E+02  -3.8078398010E+01  -1.6006491048E+03   1.6414985068E+03   1.2500000000E+02  0.  0
</event>
<event>
 4   0  0.3991300E-04  0.5187077E+03  0.7818609E-02  0.1009008E+00
       21   -1    0    0  502  501   0.0000000000E+00   0.0000000000E+00   4.2604650790E+02   4.2604650790E+02   0.0000000000E+00  0. -1
       21   -1    0    0  501  502   0.0000000000E+00   0.0000000000E+00  -1.5788048937E+02   1.5788048937E+02   0.0000000000E+00  0. -1
       25    1    1    2    0    0   1.1042065693E+02   1.2973936355E+02   3.0337188724E+02   3.6970870412E+02   1.2500000000E+02  0.  0
       25    1    1    2    0    0  -1.1042065693E+02  -1.2973936355E+02  -3.5205868709E+01   2.1421829316E+02   1.2500000000E+02  0.  0
</event>
<event>
 4   0  0.3991300E-04  0.1365967E+04  0.7818609E-02  0.8978829E-01
       21   -1    0    0  502  501   0.0000000000E+00   0.0000000000E+00   1.1300203322E+02   1.1300203322E+02   0.0000000000E+00  0. -1
       21   -1    0    0  501  502   0.0000000000E+00   0.0000000000E+00  -4.1279474139E+03   4.1279474139E+03   0.0000000000E+00  0. -1
       25    1    1    2    0    0  -7.9161957009E+01   2.7324035007E+02  -3.8957840159E+03   3.9081562152E+03   1.2500000000E+02  0.  0
       25    1    1    2    0    0   7.9161957009E+01  -2.7324035007E+02  -1.1916136484E+02   3.3279323192E+02   1.2500000000E+02  0.  0
</event>
<event>
 4   0  0.3991300E-04  0.3517881E+03  0.7818609E-02  0.1061884E+00
       21   -1    0    0  502  501   0.0000000000E+00   0.0000000000E+00   1.5328243853E+03   1.5328243853E+03   0.0000000000E+00  0.  1
       21   -1    0    0  501  502   0.0000000000E+00   0.0000000000E+00  -2.0184119420E+01   2.0184119420E+01   0.0000000000E+00  0.  1
       25    1    1    2    0    0  -6.3930607285E+01  -4.1428099397E+01   3.2580358059E+02   3.5717836313E+02   1.2500000000E+02  0.  0
       25    1    1    2    0    0   6.3930607285E+01   4.1428099397E+01   1.1868366853E+03   1.1958301416E+03   1.2500000000E+02  0.  0
</event>
<event>
 4   0  0.3991300E-04  0.1157925E+04  0.7818609E-02  0.9150503E-01
       21   -1    0    0  502  501   0.0000000000E+00   0.0000000000E+00   3.8039203746E+02   3.8039203746E+02   0.0000000000E+00  0.  1
       21   -1    0    0  501  502   0.0000000000E+00   0.0000000000E+00  -8.8119037500E+02   8.8119037500E+02   0.0000000000E+00  0.  1
       25    1    1    2    0    0  -1.6044052188E+02  -1.8508443326E+02  -8.0549352239E+02   8.5114171740E+02   1.2500000000E+02  0.  0
       25    1    1    2    0    0   1.6044052188E+02   1.8508443326E+02   3.0469518485E+02   4.1044069507E+02   1.2500000000E+02  0.  0
</event>
<event>
 4   0  0.3991300E-04  0.3823274E+03  0.7818609E-02  0.1050077E+00
       21   -1    0    0  502  501   0.0000000000E+00   0.0000000000E+00   1.0358504282E+02   1.0358504282E+02   0.0000000000E+00  0. -1
       21   -1    0    0  501  502   0.0000000000E+00   0.0000000000E+00  -3.5278800272E+02   3.5278800272E+02   0.0000000000E+00  0. -1
       25    1    1    2    0    0   1.0354210643E+02  -6.8995666069E+01  -2.1261954995E+02   2.7624887830E+02   1.2500000000E+02  0.  0
       25    1    1    2    0    0  -1.0354210643E+02   6.8995666069E+01  -3.6583409956E+01   1.8012416724E+02   1.2500000000E+02  0.  0
</event>
<event>
 4   0  0.3991300E-04  0.6060017E+03  0.7818609E-02  0.9893032E-01
       21   -1    0    0  502  501   0.0000000000E+00   0.0000000000E+00   9.9768189213E+01   9.9768189213E+01   0.0000000000E+00  0. -1
       21   -1    0    0  501  502   0.0000000000E+00   0.0000000000E+00  -9.2022845225E+02   9.2022845225E+02   0.0000000000E+00  0. -1
       25    1    1    2    0    0  -8.8547453016E+01   2.4921263887E+02  -5.4315630420E+02   6.1692087142E+02   1.2500000000E+02  0.  0
       25    1    1    2    0    0   8.8547453016E+01  -2.4921263887E+02  -2.7730395884E+02   4.0307577004E+02   1.2500000000E+02  0.  0
</event>
<event>
 4   0  0.3991300E-04  0.5026406E+03  0.7818609E-02  0.1013092E+00
       21   -1    0    0  502  501   0.0000000000E+00   0.0000000000E+00   6.3433282936E+02   6.3433282936E+02   0.0000000000E+00  0. -1
       21   -1    0    0  501  502   0.0000000000E+00   0.0000000000E+00  -9.9572153226E+01   9.9572153226E+01   0.0000000000E+00  0. -1
       25    1    1    2    0    0   1.2529173437E+02  -1.4169507943E+02   4.2572786315E+02   4.8233259034E+02   1.2500000000E+02  0.  0
       25    1    1    2    0    0  -1.2529173437E+02   1.4169507943E+02   1.0903281298E+02   2.5157239225E+02   1.2500000000E+02  0.  0
</event>
<event>
 4   0  0.3991300E-04  0.4538812E+03  0.7818609E-02  0.1026571E+00
       21   -1    0    0  502  501   0.0000000000E+00   0.0000000000E+00   1.1623912436E+02   1.1623912436E+02   0.0000000000E+00  0.  1
       21   -1    0    0  501  502   0.0000000000E+00   0.0000000000E+00  -4.4306976718E+02   4.4306976718E+02   0.0000000000E+00  0.  1
       25    1    1    2    0    0  -1.0888205292E+01   1.8822599969E+02  -1.8578254273E+02   2.9272467125E+02   1.2500000000E+02  0.  0
       25    1    1    2    0    0   1.0888205292E+01  -1.8822599969E+02  -1.4104810009E+02   2.6658422030E+02   1.2500000000E+02  0.  0
</event>
<event>
 4   0  0.3991300E-04  0.4555716E+03  0.7818609E-02  0.1026073E+00
       21   -1    0    0  502  501   0.0000000000E+00   0.0000000000E+00   1.8305036467E+02   1.8305036467E+02   0.0000000000E+00  0. -1
       21   -1    0    0  501  502   0.0000000000E+00   0.0000000000E+00  -2.8345409273E+02   2.8345409273E+02   0.0000000000E+00  0. -1
       25    1    1    2    0    0   1.6385468393E+02   6.0345015742E+01   2.7591644971E+01   2.1650906966E+02   1.2500000000E+02  0.  0
       25    1    1    2    0    0  -1.6385468393E+02  -6.0345015742E+01  -1.2799537304E+02   2.4999538774E+02   1.2500000000E+02  0.  0
</event>
<event>
 4   0  0.3991300E-04  0.4380493E+03  0.7818609E-02  0.1031347E+00
       21   -1    0    0  502  501   0.0000000000E+00   0.0000000000E+00   5.3048026537E+02   5.3048026537E+02   0.0000000000E+00  0. -1
       21   -1    0    0  501  502   0.0000000000E+00   0.0000000000E+00  -9.0430892605E+01   9.0430892605E+01   0.0000000000E+00  0.  1
       25    1    1    2    0    0   4.4500560390E+01   1.2401805544E+02   3.9354474432E+02   4.3343193668E+02   1.2500000000E+02  0.  0
       25    1    1    2    0    0  -4.4500560390E+01  -1.2401805544E+02   4.6504628437E+01   1.8747922129E+02   1.2500000000E+02  0.  0
</event>
<event>
 4   0  0.3991300E-04  0.5398782E+03  0.7818609E-02  0.1003864E+00
       21   -1    0    0  502  501   0.0000000000E+00   0.0000000000E+00   6.4077680800E+01   6.4077680800E+01   0.0000000000E+00  0. -1
       21   -1    0    0  501  502   0.0000000000E+00   0.0000000000E+00  -1.1371684610E+03   1.1371684610E+03   0.0000000000E+00  0. -1
       25    1    1    2    0    0  -2.1700524426E+02   3.7234483507E+01  -7.4484966053E+02   7.8670432793E+02   1.2500000000E+02  0.  0
       25    1    1    2    0    0   2.1700524426E+02  -3.7234483507E+01  -3.2824111963E+02   4.1454181383E+02   1.2500000000E+02  0.  0
</event>
<event>
 4   0  0.3991300E-04  0.3309298E+03  0.7818609E-02  0.1070726E+00
       21   -1    0    0  502  501   0.0000000000E+00   0.0000000000E+00   1.5379885479E+02   1.5379885479E+02   0.0000000000E+00  0. -1
       21   -1    0    0  501  502   0.0000000000E+00   0.0000000000E+00  -1.7801585560E+02   1.7801585560E+02   0.0000000000E+00  0. -1
       25    1    1    2    0    0  -4.3798207754E+01   3.8581110980E+01   7.9496892187E+01   1.5922167250E+02   1.2500000000E+02  0.  0
       25    1    1    2    0    0   4.3798207754E+01  -3.8581110980E+01  -1.0371389300E+02   1.7259303789E+02   1.2500000000E+02  0.  0
</event>
<event>
 4   0  0.3991300E-04  0.3480233E+03  0.7818609E-02  0.1063429E+00
       21   -1    0    0  502  501   0.0000000000E+00   0.0000000000E+00   3.5512759529E+01   3.5512759529E+01   0.0000000000E+00  0.  1
       21   -1    0    0  501  502   0.0000000000E+00   0.0000000000E+00  -8.5265288937E+02   8.5265288937E+02   0.0000000000E+00  0.  1
       25    1    1    2    0    0   3.8157421827E+01   1.1466150115E+02  -3.9020106751E+02   4.2718277326E+02   1.2500000000E+02  0.  0
       25    1    1    2    0    0  -3.8157421827E+01  -1.1466150115E+02  -4.2693906233E+02   4.6098287564E+02   1.2500000000E+02  0.  0
</event>
<event>
 4   0  0.3991300E-04  0.4305418E+03  0.7818609E-02  0.1033689E+00
       21   -1    0    0  502  501   0.0000000000E+00   0.0000000000E+00   3.9786423865E+02   3.9786423865E+02   0.0000000000E+00  0.  1
       21   -1    0    0  501  502   0.0000000000E+00   0.0000000000E+00  -1.1647582076E+02   1.1647582076E+02   0.0000000000E+00  0.  1
       25    1    1    2    0    0  -1.1127338619E+02  -1.3526474065E+02   1.3330607273E+02   2.5312808134E+02   1.2500000000E+02  0.  0
       25    1    1    2    0    0   1.1127338619E+02   1.3526474065E+02   1.4808234516E+02   2.6121197806E+02   1.2500000000E+02  0.  0
</event>
<event>
 4   0  0.3991300E-04  0.5837875E+03  0.7818609E-02  0.9939625E-01
       21   -1    0    0  502  501   0.0000000000E+00   0.0000000000E+00   2.1177690758E+03   2.1177690758E+03   0.0000000000E+00  0. -1
       21   -1    0    0  501  502   0.0000000000E+00   0.0000000000E+00  -4.0231936402E+01   4.0231936402E+01   0.0000000000E+00  0. -1
       25    1    1    2    0    0   9.3811847355E+01  -1.9054019285E+02   4.6051239429E+02   5.2230536384E+02   1.2500000000E+02  0.  0
       25    1    1    2    0    0  -9.3811847355E+01   1.9054019285E+02   1.6170247451E+03   1.6356956483E+03   1.2500000000E+02  0.  0
</event>
<event>
 4   0  0.3991300E-04  0.5074117E+03  0.7818609E-02  0.1011862E+00
       21   -1    0    0  502  501   0.0000000000E+00   0.0000000000E+00   4.1809176997E+01   4.1809176997E+01   0.0000000000E+00  0.  1
       21   -1    0    0  501  502   0.0000000000E+00   0.0000000000E+00  -1.5395339722E+03   1.5395339722E+03   0.0000000000E+00  0.  1
       25    1    1    2    0    0   1.7593801038E+02  -1.3336699396E+02  -7.5148796035E+02   7.9315830269E+02   1.2500000000E+02  0.  0
       25    1    1    2    0    0  -1.7593801038E+02   1.3336699396E+02  -7.4623683486E+02   7.8818484652E+02   1.2500000000E+02  0.  0
</event>
<event>
 4   0  0.3991300E-04  0.4759031E+03  0.7818609E-02  0.1020267E+00
       21   -1    0    0  502  501   0.0000000000E+00   0.0000000000E+00   1.8386547388E+02   1.8386547388E+02   0.0000000000E+00  0. -1
       21   -1    0    0  501  502   0.0000000000E+00   0.0000000000E+00  -3.0794770217E+02   3.0794770217E+02   0.0000000000E+00  0. -1
       25    1    1    2    0    0   3.1641130991E+01   1.6786231967E+02  -1.7438146306E+02   2.7424954730E+02   1.2500000000E+02  0.  0
       25    1    1    2    0    0  -3.1641130991E+01  -1.6786231967E+02   5.0299234767E+01   2.1756362875E+02   1.2500000000E+02  0.  0
</event>
<event>
 4   0  0.3991300E-04  0.6935364E+03  0.7818609E-02  0.9728350E-01
       21   -1    0    0  502  501   0.0000000000E+00   0.0000000000E+00   1.1324382565E+03   1.1324382565E+03   0.0000000000E+00  0.  1
       21   -1    0    0  501  502   0.0000000000E+00   0.0000000000E+00  -1.0618519418E+02   1.0618519418E+02   0.0000000000E+00  0.  1
       25    1    1    2    0    0   1.5360624324E+01  -1.5431430215E+02   6.1727255848E+00   1.9927858683E+02   1.2500000000E+02  0.  0
       25    1    1    2    0    0  -1.5360624324E+01   1.5431430215E+02   1.0200803367E+03   1.0393448638E+03   1.2500000000E+02  0.  0
</event>
<event>
 4   0  0.3991300E-04  0.8792812E+03  0.7818609E-02  0.9451858E-01
       21   -1    0    0  502  501   0.0000000000E+00   0.0000000000E+00   2.6809767577E+01   2.6809767577E+01   0.0000000000E+00  0. -1
       21   -1    0    0  501  502   0.0000000000E+00   0.0000000000E+00  -7.2094559594E+03   7.2094559594E+03   0.0000000000E+00  0. -1
       25    1    1    2    0    0   5.3950043187E+01  -1.2723118364E+02  -6.8683815240E+03   6.8709088292E+03   1.2500000000E+02  0.  0
       25    1    1    2    0    0  -5.3950043187E+01   1.2723118364E+02  -3.1426466792E+02   3.6535689777E+02   1.2500000000E+02  0.  0
</event>
<event>
 4   0  0.3991300E-04  0.3984041E+03  0.7818609E-02  0.1044334E+00
       21   -1    0    0  502  501   0.0000000000E+00   0.0000000000E+00   2.4481155143E+02   2.4481155143E+02   0.0000000000E+00  0. -1
       21   -1    0    0  501  502   0.0000000000E+00   0.0000000000E+00  -1.6208980883E+02   1.6208980883E+02   0.0000000000E+00  0. -1
       25    1    1    2    0    0   9.9528394397E+01  -1.1859524359E+02   3.1904647104E+01   2.0152826005E+02   1.2500000000E+02  0.  0
       25    1    1    2    0    0  -9.9528394397E+01   1.1859524359E+02   5.0817095500E+01   2.0537310021E+02   1.2500000000E+02  0.  0
</event>
<event>
 4   0  0.3991300E-04  0.1140538E+04  0.7818609E-02  0.9166558E-01
       21   -1    0    0  502  501   0.0000000000E+00   0.0000000000E+00   2.0846734355E+02   2.0846734355E+02   0.0000000000E+00  0.  1
       21   -1    0    0  501  502   0.0000000000E+00   0.0000000000E+00  -1.5599877988E+03   1.5599877988E+03   0.0000000000E+00  0. -1
       25    1    1    2    0    0  -3.8341166343E+02   3.6271661441E+02  -4.0269840111E+02   6.7554337261E+02   1.2500000000E+02  0.  0
       25    1    1    2    0    0   3.8341166343E+02  -3.6271661441E+02  -9.4882205413E+02   1.0929117697E+03   1.2500000000E+02  0.  0
</event>
<event>
 4   0  0.3991300E-04  0.6952966E+03  0.7818609E-02  0.9725310E-01
       21   -1    0    0  502  501   0.0000000000E+00   0.0000000000E+00   2.6328571005E+01   2.6328571005E+01   0.0000000000E+00  0. -1
       21   -1    0    0  501  502   0.0000000000E+00   0.0000000000E+00  -4.5904259783E+03   4.5904259783E+03   0.0000000000E+00  0. -1
       25    1    1    2    0    0  -1.1053337406E+01   1.0813078297E+02  -2.5256119387E+02   3.0203741348E+02   1.2500000000E+02  0.  0
       25    1    1    2    0    0   1.1053337406E+01  -1.0813078297E+02  -4.3115362135E+03   4.3147171359E+03   1.2500000000E+02  0.  0
</event>
<event>
 4   0  0.3991300E-04  0.3550870E+03  0.7818609E-02  0.1060546E+00
       21   -1    0    0  502  501   0.0000000000E+00   0.0000000000E+00   9.1626454956E+02   9.1626454956E+02   0.0000000000E+00  0.  1
       21   -1    0    0  501  502   0.0000000000E+00   0.0000000000E+00  -3.4402394678E+01   3.4402394678E+01   0.0000000000E+00  0.  1
       25    1    1    2    0    0   1.1111633849E+02  -5.8967005362E+01   4.1809618536E+02   4.5415126182E+02   1.2500000000E+02  0.  0
       25    1    1    2    0    0  -1.1111633849E+02   5.8967005362E+01   4.6376596953E+02   4.9651568242E+02   1.2500000000E+02  0.  0
</event>
<event>
 4   0  0.3991300E-04  0.4039156E+03  0.7818609E-02  0.1042432E+00
       21   -1    0    0  502  501   0.0000000000E+00   0.0000000000E+00   2.3447699486E+01   2.3447699486E+01   0.0000000000E+00  0.  1
       21   -1    0    0  501  502   0.0000000000E+00   0.0000000000E+00  -1.7394864969E+03   1.7394864969E+03   0.0000000000E+00  0.  1
       25    1    1    2    0    0  -1.5317638626E+02   2.4549711219E+01  -7.1350775651E+02   7.4079957629E+02   1.2500000000E+02  0.  0
       25    1    1    2    0    0   1.5317638626E+02  -2.4549711219E+01  -1.0025310409E+03   1.0221346201E+03   1.2500000000E+02  0.  0
</event>
<event>
 4   0  0.3991300E-04  0.7610316E+03  0.7818609E-02  0.9618201E-01
       21   -1    0    0  502  501   0.0000000000E+00   0.0000000000E+00   2.0013137751E+02   2.0013137751E+02   0.0000000000E+00  0. -1
       21   -1    0    0  501  502   0.0000000000E+00   0.0000000000E+00  -7.2348606234E+02   7.2348606234E+02   0.0000000000E+00  0.  1
       25    1    1    2    0    0  -3.2456515693E+02   1.5295962676E+02  -2.8678746024E+02   4.7603701102E+02   1.2500000000E+02  0.  0
       25    1    1    2    0    0   3.2456515693E+02  -1.5295962676E+02  -2.3656722459E+02   4.4758042882E+02   1.2500000000E+02  0.  0
</event>
<event>
 4   0  0.3991300E-04  0.4599075E+03  0.7818609E-02  0.1024808E+00
       21   -1    0    0  502  501   0.0000000000E+00   0.0000000000E+00   6.6652801169E+02   6.6652801169E+02   0.0000000000E+00  0. -1
       21   -1    0    0  501  502   0.0000000000E+00   0.0000000000E+00  -7.9334585907E+01   7.9334585907E+01   0.0000000000E+00  0. -1
       25    1    1    2    0    0   1.8212017578E+02  -2.9182123564E+01   3.8582903371E+02   4.4554281277E+02   1.2500000000E+02  0.  0
       25    1    1    2    0    0  -1.8212017578E+02   2.9182123564E+01   2.0136439208E+02   3.0031978483E+02   1.2500000000E+02  0.  0
</event>
<event>
 4   0  0.3991300E-04  0.4365101E+03  0.7818609E-02  0.1031823E+00
       21   -1    0    0  502  501   0.0000000000E+00   0.0000000000E+00   1.6732123412E+02   1.6732123412E+02   0.0000000000E+00  0. -1
       21   -1    0    0  501  502   0.0000000000E+00   0.0000000000E+00  -2.8469343830E+02   2.8469343830E+02   0.0000000000E+00  0. -1
       25    1    1    2    0    0   4.1250471595E+01   1.3838997044E+02  -1.6806398317E+02   2.5440889875E+02   1.2500000000E+02  0.  0
       25    1    1    2    0    0  -4.1250471595E+01  -1.3838997044E+02   5.0691778990E+01   1.9760577366E+02   1.2500000000E+02  0.  0
</event>
<event>
 4   0  0.3991300E-04  0.5495803E+03  0.7818609E-02  0.1001591E+00
       21   -1    0    0  502  501   0.0000000000E+00   0.0000000000E+00   3.9032592623E+02   3.9032592623E+02   0.0000000000E+00  0.  1
       21   -1    0    0  501  502   0.0000000000E+00   0.0000000000E+00  -1.9345273656E+02   1.9345273656E+02   0.0000000000E+00  0.  1
       25    1    1    2    0    0   1.4525498358E+02  -6.2304503747E+01   2.9688754040E+02   3.5881481727E+02   1.2500000000E+02  0.  0
       25    1    1    2    0    0  -1.4525498358E+02   6.2304503747E+01  -1.0001435073E+02   2.2496384553E+02   1.2500000000E+02  0.  0
</event>
<event>
 4   0  0.3991300E-04  0.6454826E+03  0.7818609E-02  0.9815293E-01
       21   -1    0    0  502  501   0.0000000000E+00   0.0000000000E+00   1.4841329578E+04   1.4841329578E+04   0.0000000000E+00  0. -1
       21   -1    0    0  501  502   0.0000000000E+00   0.0000000000E+00  -7.0183698760E+00   7.0183698760E+00   0.0000000000E+00  0. -1
       25    1    1    2    0    0   2.6329794874E+02   1.1949038717E+02   5.8014694534E+03   5.8100151963E+03   1.2500000000E+02  0.  0
       25    1    1    2    0    0  -2.6329794874E+02  -1.1949038717E+02   9.0328417551E+03   9.0383327520E+03   1.2500000000E+02  0.  0
</event>
<event>
 4   0  0.3991300E-04  0.4543485E+03  0.7818609E-02  0.1026433E+00
       21   -1    0    0  502  501   0.0000000000E+00   0.0000000000E+00   3.8476579098E+01   3.8476579098E+01   0.0000000000E+00  0. -1
       21   -1    0    0  501  502   0.0000000000E+00   0.0000000000E+00  -1.3412870964E+03   1.3412870964E+03   0.0000000000E+00  0. -1
       25    1    1    2    0    0   1.1109138545E+02   4.9537413843E+01  -1.0934430944E+03   1.1072660258E+03   1.2500000000E+02  0.  0
       25    1    1    2    0    0  -1.1109138545E+02  -4.9537413843E+01  -2.0936742287E+02   2.7249764962E+02   1.2500000000E+02  0.  0
</event>
<event>
 4   0  0.3991300E-04  0.5058059E+03  0.7818609E-02  0.1012274E+00
       21   -1    0    0  502  501   0.0000000000E+00   0.0000000000E+00   3.7427826448E+01   3.7427826448E+01   0.0000000000E+00  0. -1
       21   -1    0    0  501  502   0.0000000000E+00   0.0000000000E+00  -1.7088866259E+03   1.7088866259E+03   0.0000000000E+00  0. -1
       25    1    1    2    0    0  -1.4293515718E+02   1.7115574118E+01  -2.6203104740E+02   3.2405041558E+02   1.2500000000E+02  0.  0
       25    1    1    2    0    0   1.4293515718E+02  -1.7115574118E+01  -1.4094277520E+03   1.4222640368E+03   1.2500000000E+02  0.  0
</event>
<event>
 4   0  0.3991300E-04  0.3771454E+03  0.7818609E-02  0.1051994E+00
       21   -1    0    0  502  501   0.0000000000E+00   0.0000000000E+00   3.2861303016E+02   3.2861303016E+02   0.0000000000E+00  0. -1
       21   -1    0    0  501  502   0.0000000000E+00   0.0000000000E+00  -1.0821134891E+02   1.0821134891E+02   0.0000000000E+00  0. -1
       25    1    1    2    0    0   1.1699490761E+02  -7.1084862082E+01   1.5021950914E+02   2.3860378654E+02   1.2500000000E+02  0.  0
       25    1    1    2    0    0  -1.1699490761E+02   7.1084862082E+01   7.0182172114E+01   1.9822059254E+02   1.2500000000E+02  0.  0
</event>
<event>
 4   0  0.3991300E-04  0.3182557E+03  0.7818609E-02  0.1076455E+00
       21   -1    0    0  502  501   0.0000000000E+00   0.0000000000E+00   1.3406062364E+03   1.3406062364E+03   0.0000000000E+00  0.  1
       21   -1    0    0  501  502   0.0000000000E+00   0.0000000000E+00  -1.8888222342E+01   1.8888222342E+01   0.0000000000E+00  0.  1
       25    1    1    2    0    0  -5.2425366849E+01  -8.2390877215E+01   7.1489108621E+02   7.3227791232E+02   1.2500000000E+02  0.  0
       25    1    1    2    0    0   5.2425366849E+01   8.2390877215E+01   6.0682692788E+02   6.2721654645E+02   1.2500000000E+02  0.  0
</event>
<event>
 4   0  0.3991300E-04  0.4417853E+03  0.7818609E-02  0.1030200E+00
       21   -1    0    0  502  501   0.0000000000E+00   0.0000000000E+00   5.5249794003E+02   5.5249794003E+02   0.0000000000E+00  0.  1
       21   -1    0    0  501  502   0.0000000000E+00   0.0000000000E+00  -8.8314473742E+01   8.8314473742E+01   0.0000000000E+00  0.  1
       25    1    1    2    0    0   1.7467640294E+02  -4.4645459852E+00   1.5760873278E+02   2.6645316767E+02   1.2500000000E+02  0.  0
       25    1    1    2    0    0  -1.7467640294E+02   4.4645459852E+00   3.0657473351E+02   3.7435924610E+02   1.2500000000E+02  0.  0
</event>
<event>
 4   0  0.3991300E-04  0.5371832E+03  0.7818609E-02  0.1004505E+00
       21   -1    0    0  502  501   0.0000000000E+00   0.0000000000E+00   9.8773184933E+00   9.8773184933E+00   0.0000000000E+00  0.  1
       21   -1    0    0  501  502   0.0000000000E+00   0.0000000000E+00  -7.3037492945E+03   7.3037492945E+03   0.0000000000E+00  0.  1
       25    1    1    2    0    0   2.0634011840E+01   1.7189512948E+02  -5.8650474757E+03   5.8689335139E+03   1.2500000000E+02  0.  0
       25    1    1    2    0    0  -2.0634011840E+01  -1.7189512948E+02  -1.4288245003E+03   1.4446930991E+03   1.2500000000E+02  0.  0
</event>
<event>
 4   0  0.3991300E-04  0.4075974E+03  0.7818609E-02  0.1041180E+00
       21   -1    0    0  502  501   0.0000000000E+00   0.0000000000E+00   2.7791136774E+02   2.7791136774E+02   0.0000000000E+00  0. -1
       21   -1    0    0  501  502   0.0000000000E+00   0.0000000000E+00  -1.4945021470E+02   1.4945021470E+02   0.0000000000E+00  0. -1
       25    1    1    2    0    0  -7.5547428964E+01   1.4190837795E+02   7.2586439896E+01   2.1619249065E+02   1.2500000000E+02  0.  0
       25    1    1    2    0    0   7.5547428964E+01  -1.4190837795E+02   5.5874713141E+01   2.1116909178E+02   1.2500000000E+02  0.  0
</event>
<event>
 4   0  0.3991300E-04  0.4040218E+03  0.7818609E-02  0.1042396E+00
       21   -1    0    0  502  501   0.0000000000E+00   0.0000000000E+00   2.8335088331E+02   2.8335088331E+02   0.0000000000E+00  0. -1
       21   -1    0    0  501  502   0.0000000000E+00   0.0000000000E+00  -1.4402074951E+02   1.4402074951E+02   0.0000000000E+00  0. -1
       25    1    1    2    0    0   1.5075254133E+02   3.3423208753E+01   1.0838618833E+02   2.2630953454E+02   1.2500000000E+02  0.  0
       25    1    1    2    0    0  -1.5075254133E+02  -3.3423208753E+01   3.0943945470E+01   2.0106209828E+02   1.2500000000E+02  0.  0
</event>
<event>
 4   0  0.3991300E-04  0.5817467E+03  0.7818609E-02  0.9944017E-01
       21   -1    0    0  502  501   0.0000000000E+00   0.0000000000E+00   5.2245054532E+00   5.2245054532E+00   0.0000000000E+00  0. -1
       21   -1    0    0  501  502   0.0000000000E+00   0.0000000000E+00  -1.6194315932E+04   1.6194315932E+04   0.0000000000E+00  0. -1
       25    1    1    2    0    0   1.6825143279E+02  -1.8907896679E+02  -6.1407509689E+03   6.1472357091E+03   1.2500000000E+02  0.  0
       25    1    1    2    0    0  -1.6825143279E+02   1.8907896679E+02  -1.0048340458E+04   1.0052304729E+04   1.2500000000E+02  0.  0
</event>
<event>
 4   0  0.3991300E-04  0.6606883E+03  0.7818609E-02  0.9786927E-01
       21   -1    0    0  502  501   0.0000000000E+00   0.0000000000E+00   6.6903820428E+02   6.6903820428E+02   0.0000000000E+00  0. -1
       21   -1    0    0  501  502   0.0000000000E+00   0.0000000000E+00  -1.6311067359E+02   1.6311067359E+02   0.0000000000E+00  0. -1
       25    1    1    2    0    0   8.8725562192E+01   2.9255960638E+02   2.6082173312E+02   4.2085190404E+02   1.2500000000E+02  0.  0
       25    1    1    2    0    0  -8.8725562192E+01  -2.9255960638E+02   2.4510579757E+02   4.1129697382E+02   1.2500000000E+02  0.  0
</event>
<event>
 4   0  0.3991300E-04  0.3635589E+03  0.7818609E-02  0.1057183E+00
       21   -1    0    0  502  501   0.0000000000E+00   0.0000000000E+00   7.9747175106E+00   7.9747175106E+00   0.0000000000E+00  0. -1
       21   -1    0    0  501  502   0.0000000000E+00   0.0000000000E+00  -4.1435669760E+03   4.1435669760E+03   0.0000000000E+00  0. -1
       25    1    1    2    0    0   4.1456310695E+01  -1.4881612060E+01  -3.4884937283E+03   3.4910103953E+03   1.2500000000E+02  0.  0
       25    1    1    2    0    0  -4.1456310695E+01   1.4881612060E+01  -6.4709853024E+02   6.6053129821E+02   1.2500000000E+02  0.  0
</event>
<event>
 4   0  0.3991300E-04  0.6409958E+03  0.7818609E-02  0.9823823E-01
       21   -1    0    0  502  501   0.0000000000E+00   0.0000000000E+00   2.4151699338E+03   2.4151699338E+03   0.0000000000E+00  0.  1
       21   -1    0    0  501  502   0.0000000000E+00   0.0000000000E+00  -4.2530715593E+01   4.2530715593E+01   0.0000000000E+00  0.  1
       25    1    1    2    0    0  -2.6545562434E+02  -1.1057498754E+02   1.4406623470E+03   1.4743902178E+03   1.2500000000E+02  0.  0
       25    1    1    2    0    0   2.6545562434E+02   1.1057498754E+02   9.3197687124E+02   9.8331043160E+02   1.2500000000E+02  0.  0
</event>
<event>
 4   0  0.3991300E-04  0.4658142E+03  0.7818609E-02  0.1023108E+00
       21   -1    0    0  502  501   0.0000000000E+00   0.0000000000E+00   7.4441749830E+01   7.4441749830E+01   0.0000000000E+00  0.  1
       21   -1    0    0  501  502   0.0000000000E+00   0.0000000000E+00  -7.2870025602E+02   7.2870025602E+02   0.0000000000E+00  0.  1
       25    1    1    2    0    0  -1.5112881917E+02  -7.1902071307E+01  -1.4952408780E+02   2.5688962742E+02   1.2500000000E+02  0.  0
       25    1    1    2    0    0   1.5112881917E+02   7.1902071307E+01  -5.0473441839E+02   5.4625237844E+02   1.2500000000E+02  0.  0
</event>
<event>
 4   0  0.3991300E-04  0.4096707E+03  0.7818609E-02  0.1040482E+00
       21   -1    0    0  502  501   0.0000000000E+00   0.0000000000E+00   5.7935922962E+00   5.7935922962E+00   0.0000000000E+00  0. -1
       21   -1    0    0  501  502   0.0000000000E+00   0.0000000000E+00  -7.2420547051E+03   7.2420547051E+03   0.0000000000E+00  0. -1
       25    1    1    2    0    0   2.4945269019E+01   1.1760734890E+02  -5.5463645708E+03   5.5490754822E+03   1.2500000000E+02  0.  0
       25    1    1    2    0    0  -2.4945269019E+01  -1.1760734890E+02  -1.6898965420E+03   1.6987728152E+03   1.2500000000E+02  0.  0
</event>
<event>
 4   0  0.3991300E-04  0.8457549E+03  0.7818609E-02  0.9496052E-01
       21   -1    0    0  502  501   0.0000000000E+00   0.0000000000E+00   4.8523909846E+02   4.8523909846E+02   0.0000000000E+00  0. -1
       21   -1    0    0  501  502   0.0000000000E+00   0.0000000000E+00  -3.6853032613E+02   3.6853032613E+02   0.0000000000E+00  0. -1
       25    1    1    2    0    0   1.4967654179E+02   3.0982820305E+02   2.7202914868E+02   4.5609367491E+02   1.2500000000E+02  0.  0
       25    1    1    2    0    0  -1.4967654179E+02  -3.0982820305E+02  -1.5532037635E+02   3.9767574967E+02   1.2500000000E+02  0.  0
</event>
<event>
 4   0  0.3991300E-04  0.2932950E+03  0.7818609E-02  0.1088641E+00
       21   -1    0    0  502  501   0.0000000000E+00   0.0000000000E+00   6.9498107979E+03   6.9498107979E+03   0.0000000000E+00  0.  1
       21   -1    0    0  501  502   0.0000000000E+00   0.0000000000E+00  -3.0943989937E+00   3.0943989937E+00   0.0000000000E+00  0.  1
       25    1    1    2    0    0  -2.4263708648E+01   1.7722442787E+01   1.8008242779E+03   1.8054074034E+03   1.2500000000E+02  0.  0
       25    1    1    2    0    0   2.4263708648E+01  -1.7722442787E+01   5.1458921211E+03   5.1474977935E+03   1.2500000000E+02  0.  0
</event>
<event>
 4   0  0.3991300E-04  0.5286364E+03  0.7818609E-02  0.1006563E+00
       21   -1    0    0  502  501   0.0000000000E+00   0.0000000000E+00   1.5528552870E+02   1.5528552870E+02   0.0000000000E+00  0.  1
       21   -1    0    0  501  502   0.0000000000E+00   0.0000000000E+00  -4.4990742578E+02   4.4990742578E+02   0.0000000000E+00  0. -1
       25    1    1    2    0    0   2.0987433068E+01  -1.5002803150E+02  -3.4981847621E+02   4.0118181525E+02   1.2500000000E+02  0.  0
       25    1    1    2    0    0  -2.0987433068E+01   1.5002803150E+02   5.5196579128E+01   2.0401113923E+02   1.2500000000E+02  0.  0
</event>
<event>
 4   0  0.3991300E-04  0.3794375E+03  0.7818609E-02  0.1051142E+00
       21   -1    0    0  502  501   0.0000000000E+00   0.0000000000E+00   1.7335438748E+02   1.7335438748E+02   0.0000000000E+00  0. -1
       21   -1    0    0  501  502   0.0000000000E+00   0.0000000000E+00  -2.0762791216E+02   2.0762791216E+02   0.0000000000E+00  0. -1
       25    1    1    2    0    0  -6.0186695833E+01  -8.9135017501E+01   7.7057318774E+01   1.8201736202E+02   1.2500000000E+02  0.  0
       25    1    1    2    0    0   6.0186695833E+01   8.9135017501E+01  -1.1133084345E+02   1.9896493762E+02   1.2500000000E+02  0.  0
</event>
<event>
 4   0  0.3991300E-04  0.4038529E+03  0.7818609E-02  0.1042454E+00
       21   -1    0    0  502  501   0.0000000000E+00   0.0000000000E+00   3.8920516806E+02   3.8920516806E+02   0.0000000000E+00  0. -1
       21   -1    0    0  501  502   0.0000000000E+00   0.0000000000E+00  -1.0476299628E+02   1.0476299628E+02   0.0000000000E+00  0. -1
       25    1    1    2    0    0   1.5300427725E+02  -4.1516712963E+01   1.4701373943E+02   2.4974384055E+02   1.2500000000E+02  0.  0
       25    1    1    2    0    0  -1.5300427725E+02   4.1516712963E+01   1.3742843236E+02   2.4422432379E+02   1.2500000000E+02  0.  0
</event>
<event>
 4   0  0.3991300E-04  0.4670428E+03  0.7818609E-02  0.1022758E+00
       21   -1    0    0  502  501   0.0000000000E+00   0.0000000000E+00   3.0620638269E+02   3.0620638269E+02   0.0000000000E+00  0.  1
       21   -1    0    0  501  502   0.0000000000E+00   0.0000000000E+00  -1.7808984100E+02   1.7808984100E+02   0.0000000000E+00  0.  1
       25    1    1    2    0    0  -1.5944113057E+02   1.1611730741E+02   6.2404744646E+01   2.4171068523E+02   1.2500000000E+02  0.  0
       25    1    1    2    0    0   1.5944113057E+02  -1.1611730741E+02   6.5711797049E+01   2.4258553846E+02   1.2500000000E+02  0.  0
</event>
<event>
 4   0  0.3991300E-04  0.6577895E+03  0.7818609E-02  0.9792272E-01
       21   -1    0    0  502  501   0.0000000000E+00   0.0000000000E+00   2.0435661703E+02   2.0435661703E+02   0.0000000000E+00  0.  1
       21   -1    0    0  501  502   0.0000000000E+00   0.0000000000E+00  -5.2932837267E+02   5.2932837267E+02   0.0000000000E+00  0. -1
       25    1    1    2    0    0   2.8722485248E+02   8.6607029634E+01  -1.0618558465E+02   3.4190535511E+02   1.2500000000E+02  0.  0
       25    1    1    2    0    0  -2.8722485248E+02  -8.6607029634E+01  -2.1878617099E+02   3.9177963459E+02   1.2500000000E+02  0.  0
</event>
<event>
 4   0  0.3991300E-04  0.4133202E+03  0.7818609E-02  0.1039263E+00
       21   -1    0    0  502  501   0.0000000000E+00   0.0000000000E+00   1.3908775069E+02   1.3908775069E+02   0.0000000000E+00  0. -1
       21   -1    0    0  501  502   0.0000000000E+00   0.0000000000E+00  -3.0706079038E+02   3.0706079038E+02   0.0000000000E+00  0. -1
       25    1    1    2    0    0   1.3286719189E+02   4.9223994899E+01  -1.7434099983E+02   2.5709235029E+02   1.2500000000E+02  0.  0
       25    1    1    2    0    0  -1.3286719189E+02  -4.9223994899E+01   6.3679601496E+00   1.8905619078E+02   1.2500000000E+02  0.  0
</event>
<event>
 4   0  0.3991300E-04  0.5972476E+03  0.7818609E-02  0.9911133E-01
       21   -1    0    0  502  501   0.0000000000E+00   0.0000000000E+00   4.1195925823E+02   4.1195925823E+02   0.0000000000E+00  0.  1
       21   -1    0    0  501  502   0.0000000000E+00   0.0000000000E+00  -2.1646845101E+02   2.1646845101E+02   0.0000000000E+00  0.  1
       25    1    1    2    0    0  -1.4636965436E+02   1.8238583157E+02  -4.6765525666E+01   2.6925950617E+02   1.2500000000E+02  0.  0
       25    1    1    2    0    0   1.4636965436E+02  -1.8238583157E+02   2.4225633289E+02   3.5916820307E+02   1.2500000000E+02  0.  0
</event>
<event>
 4   0  0.3991300E-04  0.3750745E+03  0.7818609E-02  0.1052769E+00
       21   -1    0    0  502  501   0.0000000000E+00   0.0000000000E+00   1.3191176385E+03   1.3191176385E+03   0.0000000000E+00  0. -1
       21   -1    0    0  501  502   0.0000000000E+00   0.0000000000E+00  -2.6661922599E+01   2.6661922599E+01   0.0000000000E+00  0. -1
       25    1    1    2    0    0  -4.8385955067E+00   1.3914165704E+02   6.0064435198E+02   6.2911243057E+02   1.2500000000E+02  0.  0
       25    1    1    2    0    0   4.8385955067E+00  -1.3914165704E+02   6.9181136391E+02   7.1666713052E+02   1.2500000000E+02  0.  0
</event>
<event>
 4   0  0.3991300E-04  0.7376522E+03  0.7818609E-02  0.9654924E-01
       21   -1    0    0  502  501   0.0000000000E+00   0.0000000000E+00   1.1718312192E+02   1.1718312192E+02   0.0000000000E+00  0. -1
       21   -1    0    0  501  502   0.0000000000E+00   0.0000000000E+00  -1.1608557026E+03   1.1608557026E+03   0.0000000000E+00  0. -1
       25    1    1    2    0    0  -8.1880730612E+01  -1.2739119540E+02   1.9090396797E+01   1.9728764270E+02   1.2500000000E+02  0.  0
       25    1    1    2    0    0   8.1880730612E+01   1.2739119540E+02  -1.0627629774E+03   1.0807511818E+03   1.2500000000E+02  0.  0
</event>
<event>
 4   0  0.3991300E-04  0.4414228E+03  0.7818609E-02  0.1030311E+00
       21   -1    0    0  502  501   0.0000000000E+00   0.0000000000E+00   4.8841127073E+01   4.8841127073E+01   0.0000000000E+00  0. -1
       21   -1    0    0  501  502   0.0000000000E+00   0.0000000000E+00  -9.9738738418E+02   9.9738738418E+02   0.0000000000E+00  0. -1
       25    1    1    2    0    0   1.1451389584E+02  -9.2528409123E+01  -7.2748427686E+02   7.5268407178E+02   1.2500000000E+02  0.  0
       25    1    1    2    0    0  -1.1451389584E+02   9.2528409123E+01  -2.2106198025E+02   2.9354443948E+02   1.2500000000E+02  0.  0
</event>
<event>
 4   0  0.3991300E-04  0.3717098E+03  0.7818609E-02  0.1054041E+00
       21   -1    0    0  502  501   0.0000000000E+00   0.0000000000E+00   3.9238260589E+03   3.9238260589E+03   0.0000000000E+00  0. -1
       21   -1    0    0  501  502   0.0000000000E+00   0.0000000000E+00  -8.8031521624E+00   8.8031521624E+00   0.0000000000E+00  0. -1
       25    1    1    2    0    0   1.3575986575E+02   1.5807810244E+01   1.7948398291E+03   1.8043712589E+03   1.2500000000E+02  0.  0
       25    1    1    2    0    0  -1.3575986575E+02  -1.5807810244E+01   2.1201830777E+03   2.1282579522E+03   1.2500000000E+02  0.  0
</event>
<event>
 4   0  0.3991300E-04  0.3053114E+03  0.7818609E-02  0.1082615E+00
       21   -1    0    0  502  501   0.0000000000E+00   0.0000000000E+00   1.1660187556E+02   1.1660187556E+02   0.0000000000E+00  0. -1
       21   -1    0    0  501  502   0.0000000000E+00   0.0000000000E+00  -1.9985757385E+02   1.9985757385E+02   0.0000000000E+00  0. -1
       25    1    1    2    0    0   6.6930178082E+00  -3.6683134885E+01  -1.2382225949E+02   1.7985383182E+02   1.2500000000E+02  0.  0
       25    1    1    2    0    0  -6.6930178082E+00   3.6683134885E+01   4.0566561205E+01   1.3660561760E+02   1.2500000000E+02  0.  0
</event>
<event>
 4   0  0.3991300E-04  0.4216103E+03  0.7818609E-02  0.1036543E+00
       21   -1    0    0  502  501   0.0000000000E+00   0.0000000000E+00   5.4279662646E+02   5.4279662646E+02   0.0000000000E+00  0. -1
       21   -1    0    0  501  502   0.0000000000E+00   0.0000000000E+00  -8.1870092243E+01   8.1870092243E+01   0.0000000000E+00  0. -1
       25    1    1    2    0    0  -5.7314437200E+01  -5.3902316905E+01   7.6114644174E+00   1.4789637883E+02   1.2500000000E+02  0.  0
       25    1    1    2    0    0   5.7314437200E+01   5.3902316905E+01   4.5331506980E+02   4.7677033988E+02   1.2500000000E+02  0.  0
</event>
<event>
 4   0  0.3991300E-04  0.4033159E+03  0.7818609E-02  0.1042638E+00
       21   -1    0    0  502  501   0.0000000000E+00   0.0000000000E+00   9.0029306900E+01   9.0029306900E+01   0.0000000000E+00  0.  1
       21   -1    0    0  501  502   0.0000000000E+00   0.0000000000E+00  -4.5169653791E+02   4.5169653791E+02   0.0000000000E+00  0.  1
       25    1    1    2    0    0   2.1835798607E+01  -1.1373990442E+02  -3.2566902547E+02   3.6755799830E+02   1.2500000000E+02  0.  0
       25    1    1    2    0    0  -2.1835798607E+01   1.1373990442E+02  -3.5998205541E+01   1.7416784652E+02   1.2500000000E+02  0.  0
</event>
<event>
 4   0  0.3991300E-04  0.4466919E+03  0.7818609E-02  0.1028713E+00
       21   -1    0    0  502  501   0.0000000000E+00   0.0000000000E+00   2.1111234816E+03   2.1111234816E+03   0.0000000000E+00  0. -1
       21   -1    0    0  501  502   0.0000000000E+00   0.0000000000E+00  -2.3628847911E+01   2.3628847911E+01   0.0000000000E+00  0. -1
       25    1    1    2    0    0   8.6309177307E+01  -1.4449704293E+02   6.7573914695E+02   7.0751470955E+02   1.2500000000E+02  0.  0
       25    1    1    2    0    0  -8.6309177307E+01   1.4449704293E+02   1.4117554867E+03   1.4272376200E+03   1.2500000000E+02  0.  0
</event>
<event>
 4   0  0.3991300E-04  0.2721893E+03  0.7818609E-02  0.1100033E+00
       21   -1    0    0  502  501   0.0000000000E+00   0.0000000000E+00   1.6981400089E+02   1.6981400089E+02   0.0000000000E+00  0. -1
       21   -1    0    0  501  502   0.0000000000E+00   0.0000000000E+00  -1.0907084046E+02   1.0907084046E+02   0.0000000000E+00  0. -1
       25    1    1    2    0    0   2.1730991265E+01   4.2569192676E+01   5.0164625096E+00   1.3391989039E+02   1.2500000000E+02  0.  0
       25    1    1    2    0    0  -2.1730991265E+01  -4.2569192676E+01   5.5726697913E+01   1.4496495096E+02   1.2500000000E+02  0.  0
</event>
<event>
 4   0  0.3991300E-04  0.4137272E+03  0.7818609E-02  0.1039127E+00
       21   -1    0    0  502  501   0.0000000000E+00   0.0000000000E+00   7.3884908142E+01   7.3884908142E+01   0.0000000000E+00  0.  1
       21   -1    0    0  501  502   0.0000000000E+00   0.0000000000E+00  -5.7917844040E+02   5.7917844040E+02   0.0000000000E+00  0.  1
       25    1    1    2    0    0  -4.2884225891E+01   7.5009818906E+01  -3.1084097402E+01   1.5510238836E+02   1.2500000000E+02  0.  0
       25    1    1    2    0    0   4.2884225891E+01  -7.5009818906E+01  -4.7420943485E+02   4.9796096018E+02   1.2500000000E+02  0.  0
</event>
<event>
 4   0  0.3991300E-04  0.4622915E+03  0.7818609E-02  0.1024119E+00
       21   -1    0    0  502  501   0.0000000000E+00   0.0000000000E+00   2.9062855509E+03   2.9062855509E+03   0.0000000000E+00  0.  1
       21   -1    0    0  501  502   0.0000000000E+00   0.0000000000E+00  -1.8383727032E+01   1.8383727032E+01   0.0000000000E+00  0.  1
       25    1    1    2    0    0  -6.9212295150E+01  -1.6249074232E+02   9.2960623225E+02   9.5445603890E+02   1.2500000000E+02  0.  0
       25    1    1    2    0    0   6.9212295150E+01   1.6249074232E+02   1.9582955916E+03   1.9702132390E+03   1.2500000000E+02  0.  0
</event>
<event>
 4   0  0.3991300E-04  0.3804089E+03  0.7818609E-02  0.1050783E+00
       21   -1    0    0  502  501   0.0000000000E+00   0.0000000000E+00   5.1385792662E+02   5.1385792662E+02   0.0000000000E+00  0. -1
       21   -1    0    0  501  502   0.0000000000E+00   0.0000000000E+00  -7.0404151309E+01   7.0404151309E+01   0.0000000000E+00  0. -1
       25    1    1    2    0    0  -3.2738243932E+01   1.3932765989E+02   2.0899281087E+02   2.8246589957E+02   1.2500000000E+02  0.  0
       25    1    1    2    0    0   3.2738243932E+01  -1.3932765989E+02   2.3446096444E+02   3.0179617836E+02   1.2500000000E+02  0.  0
</event>
<event>
 4   0  0.3991300E-04  0.5255412E+03  0.7818609E-02  0.1007319E+00
       21   -1    0    0  502  501   0.0000000000E+00   0.0000000000E+00   1.1719435591E+02   1.1719435591E+02   0.0000000000E+00  0. -1
       21   -1    0    0  501  502   0.0000000000E+00   0.0000000000E+00  -5.8917837498E+02   5.8917837498E+02   0.0000000000E+00  0. -1
       25    1    1    2    0    0   8.8402817464E+01   7.8851440280E+01  -5.0275429563E+02   5.3143154738E+02   1.2500000000E+02  0.  0
       25    1    1    2    0    0  -8.8402817464E+01  -7.8851440280E+01   3.0770276567E+01   1.7494118352E+02   1.2500000000E+02  0.  0
</event>
<event>
 4   0  0.3991300E-04  0.4912601E+03  0.7818609E-02  0.1016086E+00
       21   -1    0    0  502  501   0.0000000000E+00   0.0000000000E+00   9.8516635373E+02   9.8516635373E+02   0.0000000000E+00  0. -1
       21   -1    0    0  501  502   0.0000000000E+00   0.0000000000E+00  -6.1242569358E+01   6.1242569358E+01   0.0000000000E+00  0. -1
       25    1    1    2    0    0  -3.2338327015E+01   1.0193968650E+02   8.5049419502E+02   8.6625795398E+02   1.2500000000E+02  0.  0
       25    1    1    2    0    0   3.2338327015E+01  -1.0193968650E+02   7.3429589358E+01   1.8015096911E+02   1.2500000000E+02  0.  0
</event>
<event>
 4   0  0.3991300E-04  0.4005802E+03  0.7818609E-02  0.1043579E+00
       21   -1    0    0  502  501   0.0000000000E+00   0.0000000000E+00   3.9269806710E+02   3.9269806710E+02   0.0000000000E+00  0. -1
       21   -1    0    0  501  502   0.0000000000E+00   0.0000000000E+00  -1.0215515470E+02   1.0215515470E+02   0.0000000000E+00  0. -1
       25    1    1    2    0    0  -1.0483818111E+02  -8.6639632058E+01   2.4091000909E+02   3.0357882427E+02   1.2500000000E+02  0.  0
       25    1    1    2    0    0   1.0483818111E+02   8.6639632058E+01   4.9632903309E+01   1.9127439753E+02   1.2500000000E+02  0.  0
</event>
<event>
 4   0  0.3991300E-04  0.4456319E+03  0.7818609E-02  0.1029033E+00
       21   -1    0    0  502  501   0.0000000000E+00   0.0000000000E+00   5.8221317128E+02   5.8221317128E+02   0.0000000000E+00  0. -1
       21   -1    0    0  501  502   0.0000000000E+00   0.0000000000E+00  -8.5272812358E+01   8.5272812358E+01   0.0000000000E+00  0. -1
       25    1    1    2    0    0  -1.7172599366E+02  -6.3692333889E+01   2.1581090778E+02   3.0942830868E+02   1.2500000000E+02  0.  0
       25    1    1    2    0    0   1.7172599366E+02   6.3692333889E+01   2.8112945114E+02   3.5805767496E+02   1.2500000000E+02  0.  0
</event>
<event>
 4   0  0.3991300E-04  0.4441135E+03  0.7818609E-02  0.1029492E+00
       21   -1    0    0  502  501   0.0000000000E+00   0.0000000000E+00   8.1310343320E+01   8.1310343320E+01   0.0000000000E+00  0.  1
       21   -1    0    0  501  502   0.0000000000E+00   0.0000000000E+00  -6.0643195164E+02   6.0643195164E+02   0.0000000000E+00  0.  1
       25    1    1    2    0    0  -1.0744901747E+02  -1.4070543474E+02  -3.3748486868E+02   4.0107897889E+02   1.2500000000E+02  0.  0
       25    1    1    2    0    0   1.0744901747E+02   1.4070543474E+02  -1.8763673964E+02   2.8666331607E+02   1.2500000000E+02  0.  0
</event>
<event>
 4   0  0.3991300E-04  0.6180011E+03  0.7818609E-02  0.9868748E-01
       21   -1    0    0  502  501   0.0000000000E+00   0.0000000000E+00   8.2099041393E+01   8.2099041393E+01   0.0000000000E+00  0.  1
       21   -1    0    0  501  502   0.0000000000E+00   0.0000000000E+00  -1.1630018903E+03   1.1630018903E+03   0.0000000000E+00  0.  1
       25    1    1    2    0    0   7.4979087252E+01   2.1984419024E+02  -8.6470921253E+02   9.0404665463E+02   1.2500000000E+02  0.  0
       25    1    1    2    0    0  -7.4979087252E+01  -2.1984419024E+02  -2.1619363642E+02   3.4105427711E+02   1.2500000000E+02  0.  0
</event>
<event>
 4   0  0.3991300E-04  0.3874841E+03  0.7818609E-02  0.1048202E+00
       21   -1    0    0  502  501   0.0000000000E+00   0.0000000000E+00   9.5484140207E+01   9.5484140207E+01   0.0000000000E+00  0. -1
       21   -1    0    0  501  502   0.0000000000E+00   0.0000000000E+00  -3.9311215054E+02   3.9311215054E+02   0.0000000000E+00  0. -1
       25    1    1    2    0    0  -8.2801325793E+01  -9.1857861322E+01  -2.5138593007E+02   3.0677974522E+02   1.2500000000E+02  0.  0
       25    1    1    2    0    0   8.2801325793E+01   9.1857861322E+01  -4.6242080260E+01   1.8181654552E+02   1.2500000000E+02  0.  0
</event>
<event>
 4   0  0.3991300E-04  0.6034342E+03  0.7818609E-02  0.9898307E-01
       21   -1    0    0  502  501   0.0000000000E+00   0.0000000000E+00   4.8812884564E+02   4.8812884564E+02   0.0000000000E+00  0.  1
       21   -1    0    0  501  502   0.0000000000E+00   0.0000000000E+00  -1.8649421436E+02   1.8649421436E+02   0.0000000000E+00  0.  1
       25    1    1    2    0    0   2.1888722588E+02   1.3510627678E+02   2.5829912541E+02   3.8536834570E+02   1.2500000000E+02  0.  0
       25    1    1    2    0    0  -2.1888722588E+02  -1.3510627678E+02   4.3335505877E+01   2.8925471431E+02   1.2500000000E+02  0.  0
</event>
<event>
 4   0  0.3991300E-04  0.3737834E+03  0.7818609E-02  0.1053256E+00
       21   -1    0    0  502  501   0.0000000000E+00   0.0000000000E+00   3.2786138992E+01   3.2786138992E+01   0.0000000000E+00  0. -1
       21   -1    0    0  501  502   0.0000000000E+00   0.0000000000E+00  -1.0653436774E+03   1.0653436774E+03   0.0000000000E+00  0. -1
       25    1    1    2    0    0  -2.8349557064E+01  -8.7874653845E+01  -8.2127875981E+02   8.3585253094E+02   1.2500000000E+02  0.  0
       25    1    1    2    0    0   2.8349557064E+01   8.7874653845E+01  -2.1127877859E+02   2.6227728544E+02   1.2500000000E+02  0.  0
</event>
<event>
 4   0  0.3991300E-04  0.4468747E+03  0.7818609E-02  0.1028658E+00
       21   -1    0    0  502  501   0.0000000000E+00   0.0000000000E+00   5.7127624867E+01   5.7127624867E+01   0.0000000000E+00  0.  1
       21   -1    0    0  501  502   0.0000000000E+00   0.0000000000E+00  -8.7390750684E+02   8.7390750684E+02   0.0000000000E+00  0.  1
       25    1    1    2    0    0  -1.0066071474E+02  -1.5250340741E+02  -4.7121829596E+02   5.2063571834E+02   1.2500000000E+02  0.  0
       25    1    1    2    0    0   1.0066071474E+02   1.5250340741E+02  -3.4556158601E+02   4.1039941336E+02   1.2500000000E+02  0.  0
</event>
<event>
 4   0  0.3991300E-04  0.1550864E+04  0.7818609E-02  0.8851316E-01
       21   -1    0    0  502  501   0.0000000000E+00   0.0000000000E+00   1.1074816348E+03   1.1074816348E+03   0.0000000000E+00  0. -1
       21   -1    0    0  501  502   0.0000000000E+00   0.0000000000E+00  -5.4293859091E+02   5.4293859091E+02   0.0000000000E+00  0.  1
       25    1    1    2    0    0  -6.6596134348E+02  -3.7490692036E+02   3.2496956812E+02   8.3981541433E+02   1.2500000000E+02  0.  0
       25    1    1    2    0    0   6.6596134348E+02   3.7490692036E+02   2.3957347579E+02   8.1060481139E+02   1.2500000000E+02  0.  0
</event>
<event>
 4   0  0.3991300E-04  0.4764640E+03  0.7818609E-02  0.1020112E+00
       21   -1    0    0  502  501   0.0000000000E+00   0.0000000000E+00   4.0508377453E+02   4.0508377453E+02   0.0000000000E+00  0.  1
       21   -1    0    0  501  502   0.0000000000E+00   0.0000000000E+00  -1.4010554708E+02   1.4010554708E+02   0.0000000000E+00  0.  1
       25    1    1    2    0    0  -1.5638240125E+02  -5.8895648748E+01   9.9936315415E-01   2.0868673075E+02   1.2500000000E+02  0.  0
       25    1    1    2    0    0   1.5638240125E+02   5.8895648748E+01   2.6397886429E+02   3.3650259086E+02   1.2500000000E+02  0.  0
</event>
<event>
 4   0  0.3991300E-04  0.4248464E+03  0.7818609E-02  0.1035500E+00
       21   -1    0    0  502  501   0.0000000000E+00   0.0000000000E+00   1.6313801187E+02   1.6313801187E+02   0.0000000000E+00  0. -1
       21   -1    0    0  501  502   0.0000000000E+00   0.0000000000E+00  -2.7659777095E+02   2.7659777095E+02   0.0000000000E+00  0. -1
       25    1    1    2    0    0  -2.2146490771E+01  -1.7023609805E+02  -5.1271119148E+01   2.1845943283E+02   1.2500000000E+02  0.  0
       25    1    1    2    0    0   2.2146490771E+01   1.7023609805E+02  -6.2188639929E+01   2.2127635000E+02   1.2500000000E+02  0.  0
</event>
<event>
 4   0  0.3991300E-04  0.3652014E+03  0.7818609E-02  0.1056543E+00
       21   -1    0    0  502  501   0.0000000000E+00   0.0000000000E+00   6.8871911202E+00   6.8871911202E+00   0.0000000000E+00  0. -1
       21   -1    0    0  501  502   0.0000000000E+00   0.0000000000E+00  -4.8413070751E+03   4.8413070751E+03   0.0000000000E+00  0. -1
       25    1    1    2    0    0  -3.9630042578E+01  -3.1040694361E+01  -7.8137340061E+02   7.9290822682E+02   1.2500000000E+02  0.  0
       25    1    1    2    0    0   3.9630042578E+01   3.1040694361E+01  -4.0530464833E+03   4.0552860394E+03   1.2500000000E+02  0.  0
</event>
<event>
 4   0  0.3991300E-04  0.8343854E+03  0.7818609E-02  0.9511537E-01
       21   -1    0    0  502  501   0.0000000000E+00   0.0000000000E+00   2.4827831333E+03   2.4827831333E+03   0.0000000000E+00  0.  1
       21   -1    0    0  501  502   0.0000000000E+00   0.0000000000E+00  -7.0102671305E+01   7.0102671305E+01   0.0000000000E+00  0.  1
       25    1    1    2    0    0   3.8169697502E+02  -1.1264366100E+02   1.2265323902E+03   1.2955261014E+03   1.2500000000E+02  0.  0
       25    1    1    2    0    0  -3.8169697502E+02   1.1264366100E+02   1.1861480717E+03   1.2573597032E+03   1.2500000000E+02  0.  0
</event>
<event>
 4   0  0.3991300E-04  0.4021095E+03  0.7818609E-02  0.1043052E+00
       21   -1    0    0  502  501   0.0000000000E+00   0.0000000000E+00   8.2310636217E+03   8.2310636217E+03   0.0000000000E+00  0. -1
       21   -1    0    0  501  502   0.0000000000E+00   0.0000000000E+00  -4.9110305021E+00   4.9110305021E+00   0.0000000000E+00  0. -1
       25    1    1    2    0    0   4.2705680095E+01  -1.5156800592E+02   4.1370408409E+03   4.1419232917E+03   1.2500000000E+02  0.  0
       25    1    1    2    0    0  -4.2705680095E+01   1.5156800592E+02   4.0891117503E+03   4.0940513605E+03   1.2500000000E+02  0.  0
</event>
<event>
 4   0  0.3991300E-04  0.3990271E+03  0.7818609E-02  0.1044117E+00
       21   -1    0    0  502  501   0.0000000000E+00   0.0000000000E+00   7.4709728096E+01   7.4709728096E+01   0.0000000000E+00  0. -1
       21   -1    0    0  501  502   0.0000000000E+00   0.0000000000E+00  -5.3280421410E+02   5.3280421410E+02   0.0000000000E+00  0. -1
       25    1    1    2    0    0   2.8470067098E+01  -1.4511794200E+02  -1.5585853765E+02   2.4856919675E+02   1.2500000000E+02  0.  0
       25    1    1    2    0    0  -2.8470067098E+01   1.4511794200E+02  -3.0223594835E+02   3.5894474545E+02   1.2500000000E+02  0.  0
</event>
<event>
 4   0  0.3991300E-04  0.6439578E+03  0.7818609E-02  0.9818183E-01
       21   -1    0    0  502  501   0.0000000000E+00   0.0000000000E+00   9.9519032229E+02   9.9519032229E+02   0.0000000000E+00  0. -1
       21   -1    0    0  501  502   0.0000000000E+00   0.0000000000E+00  -1.0417145185E+02   1.0417145185E+02   0.0000000000E+00  0. -1
       25    1    1    2    0    0   2.5516931294E+02   1.5109378515E+02   4.2804001643E+02   5.3552214319E+02   1.2500000000E+02  0.  0
       25    1    1    2    0    0  -2.5516931294E+02  -1.5109378515E+02   4.6297885401E+02   5.6383963096E+02   1.2500000000E+02  0.  0
</event>
<event>
 4   0  0.3991300E-04  0.4080282E+03  0.7818609E-02  0.1041035E+00
       21   -1    0    0  502  501   0.0000000000E+00   0.0000000000E+00   2.5350471539E+02   2.5350471539E+02   0.0000000000E+00  0. -1
       21   -1    0    0  501  502   0.0000000000E+00   0.0000000000E+00  -1.6418531096E+02   1.6418531096E+02   0.0000000000E+00  0. -1
       25    1    1    2    0    0   9.8016093340E+01   1.2412052271E+02   7.6766239361E+01   2.1571071883E+02   1.2500000000E+02  0.  0
       25    1    1    2    0    0  -9.8016093340E+01  -1.2412052271E+02   1.2553165070E+01   2.0197930752E+02   1.2500000000E+02  0.  0
</event>
<event>
 4   0  0.3991300E-04  0.4531289E+03  0.7818609E-02  0.1026793E+00
       21   -1    0    0  502  501   0.0000000000E+00   0.0000000000E+00   2.0303987527E+03   2.0303987527E+03   0.0000000000E+00  0.  1
       21   -1    0    0  501  502   0.0000000000E+00   0.0000000000E+00  -2.5281467245E+01   2.5281467245E+01   0.0000000000E+00  0.  1
       25    1    1    2    0    0   9.4562543727E+00  -4.5196187622E+01   1.7129742496E+02   2.1702516886E+02   1.2500000000E+02  0.  0
       25    1    1    2    0    0  -9.4562543727E+00   4.5196187622E+01   1.8338198605E+03   1.8386550511E+03   1.2500000000E+02  0.  0
</event>
<event>
 4   0  0.3991300E-04  0.3534040E+03  0.7818609E-02  0.1061227E+00
       21   -1    0    0  502  501   0.0000000000E+00   0.0000000000E+00   9.8651033512E+00   9.8651033512E+00   0.0000000000E+00  0.  1
       21   -1    0    0  501  502   0.0000000000E+00   0.0000000000E+00  -3.1650551200E+03   3.1650551200E+03   0.0000000000E+00  0.  1
       25    1    1    2    0    0  -1.0739080045E+02   5.5456827394E+00  -2.1482665473E+03   2.1545852726E+03   1.2500000000E+02  0.  0
       25    1    1    2    0    0   1.0739080045E+02  -5.5456827394E+00  -1.0069234694E+03   1.0203349508E+03   1.2500000000E+02  0.  0
</event>
<event>
 4   0  0.3991300E-04  0.8390215E+03  0.7818609E-02  0.9505191E-01
       21   -1    0    0  502  501   0.0000000000E+00   0.0000000000E+00   8.1161068306E+02   8.1161068306E+02   0.0000000000E+00  0.  1
       21   -1    0    0  501  502   0.0000000000E+00   0.0000000000E+00  -2.1683953659E+02   2.1683953659E+02   0.0000000000E+00  0.  1
       25    1    1    2    0    0   3.0417762114E+01  -3.0992455094E+02   6.0599288586E+02   6.9269823534E+02   1.2500000000E+02  0.  0
       25    1    1    2    0    0  -3.0417762114E+01   3.0992455094E+02  -1.1221739398E+01   3.3575198430E+02   1.2500000000E+02  0.  0
</event>
<event>
 4   0  0.3991300E-04  0.3456868E+03  0.7818609E-02  0.1064399E+00
       21   -1    0    0  502  501   0.0000000000E+00   0.0000000000E+00   1.7712407592E+01   1.7712407592E+01   0.0000000000E+00  0. -1
       21   -1    0    0  501  502   0.0000000000E+00   0.0000000000E+00  -1.6866620514E+03   1.6866620514E+03   0.0000000000E+00  0. -1
       25    1    1    2    0    0  -2.7663951072E+01  -6.8197359048E+01  -1.2978713920E+03   1.3059522671E+03   1.2500000000E+02  0.  0
       25    1    1    2    0    0   2.7663951072E+01   6.8197359048E+01  -3.7107825187E+02   3.9842219188E+02   1.2500000000E+02  0.  0
</event>
<event>
 4   0  0.3991300E-04  0.4478777E+03  0.7818609E-02  0.1028357E+00
       21   -1    0    0  502  501   0.0000000000E+00   0.0000000000E+00   6.0828497963E+03   6.0828497963E+03   0.0000000000E+00  0.  1
       21   -1    0    0  501  502   0.0000000000E+00   0.0000000000E+00  -8.2442615940E+00   8.2442615940E+00   0.0000000000E+00  0.  1
       25    1    1    2    0    0   1.6584798818E+02   4.3255338921E+01   4.0129976764E+03   4.0186007429E+03   1.2500000000E+02  0.  0
       25    1    1    2    0    0  -1.6584798818E+02  -4.3255338921E+01   2.0616078582E+03   2.0724933150E+03   1.2500000000E+02  0.  0
</event>
<event>
 4   0  0.3991300E-04  0.1228711E+04  0.7818609E-02  0.9088090E-01
       21   -1    0    0  502  501   0.0000000000E+00   0.0000000000E+00   4.9077018306E+02   4.9077018306E+02   0.0000000000E+00  0. -1
       21   -1    0    0  501  502   0.0000000000E+00   0.0000000000E+00  -7.6906239018E+02   7.6906239018E+02   0.0000000000E+00  0. -1
       25    1    1    2    0    0  -1.8850018600E+02   2.3314667607E+02   3.9551932340E+02   5.1181073442E+02   1.2500000000E+02  0.  0
       25    1    1    2    0    0   1.8850018600E+02  -2.3314667607E+02  -6.7381153052E+02   7.4802183881E+02   1.2500000000E+02  0.  0
</event>
<event>
 4   0  0.3991300E-04  0.5090053E+03  0.7818609E-02  0.1011455E+00
       21   -1    0    0  502  501   0.0000000000E+00   0.0000000000E+00   1.6500301472E+01   1.6500301472E+01   0.0000000000E+00  0. -1
       21   -1    0    0  501  502   0.0000000000E+00   0.0000000000E+00  -3.9254792027E+03   3.9254792027E+03   0.0000000000E+00  0. -1
       25    1    1    2    0    0  -6.6203132255E+01   2.1069466234E+02  -1.8052208512E+03   1.8229707669E+03   1.2500000000E+02  0.  0
       25    1    1    2    0    0   6.6203132255E+01  -2.1069466234E+02  -2.1037580500E+03   2.1190087373E+03   1.2500000000E+02  0.  0
</event>
<event>
 4   0  0.3991300E-04  0.3640313E+03  0.7818609E-02  0.1056999E+00
       21   -1    0    0  502  501   0.0000000000E+00   0.0000000000E+00   8.6747329678E+00   8.6747329678E+00   0.0000000000E+00  0. -1
       21   -1    0    0  501  502   0.0000000000E+00   0.0000000000E+00  -3.8191025991E+03   3.8191025991E+03   0.0000000000E+00  0. -1
       25    1    1    2    0    0  -6.1769908544E+01   1.1642908872E+02  -2.0266792998E+03   2.0348034889E+03   1.2500000000E+02  0.  0
       25    1    1    2    0    0   6.1769908544E+01  -1.1642908872E+02  -1.7837485663E+03   1.7929738431E+03   1.2500000000E+02  0.  0
</event>
<event>
 4   0  0.3991300E-04  0.4900505E+03  0.7818609E-02  0.1016409E+00
       21   -1    0    0  502  501   0.0000000000E+00   0.0000000000E+00   4.2663858411E+03   4.2663858411E+03   0.0000000000E+00  0. -1
       21   -1    0    0  501  502   0.0000000000E+00   0.0000000000E+00  -1.4072186840E+01   1.4072186840E+01   0.0000000000E+00  0. -1
       25    1    1    2    0    0  -2.0821436186E+02  -3.1848683574E+01   2.0676800873E+03   2.0821367636E+03   1.2500000000E+02  0.  0
       25    1    1    2    0    0   2.0821436186E+02   3.1848683574E+01   2.1846335670E+03   2.1983212643E+03   1.2500000000E+02  0.  0
</event>
<event>
 4   0  0.3991300E-04  0.4942647E+03  0.7818609E-02  0.1015287E+00
       21   -1    0    0  502  501   0.0000000000E+00   0.0000000000E+00   4.2328922382E+01   4.2328922382E+01   0.0000000000E+00  0. -1
       21   -1    0    0  501  502   0.0000000000E+00   0.0000000000E+00  -1.4428524515E+03   1.4428524515E+03   0.0000000000E+00  0. -1
       25    1    1    2    0    0  -5.5590860308E+01   2.0375287096E+02  -6.1297606387E+02   6.6028041850E+02   1.2500000000E+02  0.  0
       25    1    1    2    0    0   5.5590860308E+01  -2.0375287096E+02  -7.8754746527E+02   8.2490095541E+02   1.2500000000E+02  0.  0
</event>
<event>
 4   0  0.3991300E-04  0.7957965E+03  0.7818609E-02  0.9566121E-01
       21   -1    0    0  502  501   0.0000000000E+00   0.0000000000E+00   7.3727845675E+02   7.3727845675E+02   0.0000000000E+00  0.  1
       21   -1    0    0  501  502   0.0000000000E+00   0.0000000000E+00  -2.1473979723E+02   2.1473979723E+02   0.0000000000E+00  0.  1
       25    1    1    2    0    0  -2.8794595706E+02   2.2088777598E+02   1.3583511376E+02   4.0716146907E+02   1.2500000000E+02  0.  0
       25    1    1    2    0    0   2.8794595706E+02  -2.2088777598E+02   3.8670354576E+02   5.4485678492E+02   1.2500000000E+02  0.  0
</event>
<event>
 4   0  0.3991300E-04  0.3110999E+03  0.7818609E-02  0.1079820E+00
       21   -1    0    0  502  501   0.0000000000E+00   0.0000000000E+00   7.2793706709E+02   7.2793706709E+02   0.0000000000E+00  0.  1
       21   -1    0    0  501  502   0.0000000000E+00   0.0000000000E+00  -3.3238850936E+01   3.3238850936E+01   0.0000000000E+00  0.  1
       25    1    1    2    0    0  -5.6797500743E+01  -5.8459754160E+01   4.5476263230E+02   4.7862046622E+02   1.2500000000E+02  0.  0
       25    1    1    2    0    0   5.6797500743E+01   5.8459754160E+01   2.3993558385E+02   2.8255545181E+02   1.2500000000E+02  0.  0
</event>
<event>
 4   0  0.3991300E-04  0.7257058E+03  0.7818609E-02  0.9674254E-01
       21   -1    0    0  502  501   0.0000000000E+00   0.0000000000E+00   3.1920622468E+02   3.1920622468E+02   0.0000000000E+00  0. -1
       21   -1    0    0  501  502   0.0000000000E+00   0.0000000000E+00  -4.1246757346E+02   4.1246757346E+02   0.0000000000E+00  0. -1
       25    1    1    2    0    0   1.5692718091E+02  -2.2387787398E+02  -2.5150058608E+02   3.9195023583E+02   1.2500000000E+02  0.  0
       25    1    1    2    0    0  -1.5692718091E+02   2.2387787398E+02   1.5823923731E+02   3.3972356231E+02   1.2500000000E+02  0.  0
</event>
<event>
 4   0  0.3991300E-04  0.3910298E+03  0.7818609E-02  0.1046931E+00
       21   -1    0    0  502  501   0.0000000000E+00   0.0000000000E+00   1.3438587404E+04   1.3438587404E+04   0.0000000000E+00  0.  1
       21   -1    0    0  501  502   0.0000000000E+00   0.0000000000E+00  -2.8445015731E+00   2.8445015731E+00   0.0000000000E+00  0.  1
       25    1    1    2    0    0   6.6321146032E+01   4.5973092327E+01   2.3577255449E+03   2.3624154514E+03   1.2500000000E+02  0.  0
       25    1    1    2    0    0  -6.6321146032E+01  -4.5973092327E+01   1.1078017358E+04   1.1079016454E+04   1.2500000000E+02  0.  0
</event>
<event>
 4   0  0.3991300E-04  0.5345689E+03  0.7818609E-02  0.1005130E+00
       21   -1    0    0  502  501   0.0000000000E+00   0.0000000000E+00   3.4553949776E+01   3.4553949776E+01   0.0000000000E+00  0. -1
       21   -1    0    0  501  502   0.0000000000E+00   0.0000000000E+00  -2.0675195931E+03   2.0675195931E+03   0.0000000000E+00  0. -1
       25    1    1    2    0    0  -1.3182842585E+02  -1.1303813196E+02  -1.6463794925E+03   1.6602249204E+03   1.2500000000E+02  0.  0
       25    1    1    2    0    0   1.3182842585E+02   1.1303813196E+02  -3.8658615085E+02   4.4184862245E+02   1.2500000000E+02  0.  0
</event>
<event>
 4   0  0.3991300E-04  0.3715145E+03  0.7818609E-02  0.1054115E+00
       21   -1    0    0  502  501   0.0000000000E+00   0.0000000000E+00   6.4938834637E+00   6.4938834637E+00   0.0000000000E+00  0. -1
       21   -1    0    0  501  502   0.0000000000E+00   0.0000000000E+00  -5.3135793591E+03   5.3135793591E+03   0.0000000000E+00  0. -1
       25    1    1    2    0    0  -8.8144773883E+01   1.0232972028E+02  -3.0157817598E+03   3.0213913178E+03   1.2500000000E+02  0.  0
       25    1    1    2    0    0   8.8144773883E+01  -1.0232972028E+02  -2.2913037159E+03   2.2986819247E+03   1.2500000000E+02  0.  0
</event>
<event>
 4   0  0.3991300E-04  0.5672858E+03  0.7818609E-02  0.9975703E-01
       21   -1    0    0  502  501   0.0000000000E+00   0.0000000000E+00   4.0282427976E+02   4.0282427976E+02   0.0000000000E+00  0. -1
       21   -1    0    0  501  502   0.0000000000E+00   0.0000000000E+00  -1.9972302454E+02   1.9972302454E+02   0.0000000000E+00  0. -1
       25    1    1    2    0    0   1.4066024213E+01  -1.5778997193E+02   3.1327146661E+02   3.7263861860E+02   1.2500000000E+02  0.  0
       25    1    1    2    0    0  -1.4066024213E+01   1.5778997193E+02  -1.1017021140E+02   2.2990868570E+02   1.2500000000E+02  0.  0
</event>
<event>
 4   0  0.3991300E-04  0.6571891E+03  0.7818609E-02  0.9793382E-01
       21   -1    0    0  502  501   0.0000000000E+00   0.0000000000E+00   1.3232652528E+04   1.3232652528E+04   0.0000000000E+00  0. -1
       21   -1    0    0  501  502   0.0000000000E+00   0.0000000000E+00  -8.1596926333E+00   8.1596926333E+00   0.0000000000E+00  0. -1
       25    1    1    2    0    0  -1.1387054282E+02   2.6727193217E+02   4.8159857730E+03   4.8263593683E+03   1.2500000000E+02  0.  0
       25    1    1    2    0    0   1.1387054282E+02  -2.6727193217E+02   8.4085070623E+03   8.4144528522E+03   1.2500000000E+02  0.  0
</event>
<event>
 4   0  0.3991300E-04  0.5597776E+03  0.7818609E-02  0.9992558E-01
       21   -1    0    0  502  501   0.0000000000E+00   0.0000000000E+00   3.0861137849E+03   3.0861137849E+03   0.0000000000E+00  0. -1
       21   -1    0    0  501  502   0.0000000000E+00   0.0000000000E+00  -2.5383943435E+01   2.5383943435E+01   0.0000000000E+00  0. -1
       25    1    1    2    0    0  -1.6853084691E+02   1.3798258916E+02   8.4347641943E+02   8.8006778796E+02   1.2500000000E+02  0.  0
       25    1    1    2    0    0   1.6853084691E+02  -1.3798258916E+02   2.2172534220E+03   2.2314299403E+03   1.2500000000E+02  0.  0
</event>
<event>
 4   0  0.3991300E-04  0.4405072E+03  0.7818609E-02  0.1030591E+00
       21   -1    0    0  502  501   0.0000000000E+00   0.0000000000E+00   1.3486987718E+01   1.3486987718E+01   0.0000000000E+00  0. -1
       21   -1    0    0  501  502   0.0000000000E+00   0.0000000000E+00  -3.5969226906E+03   3.5969226906E+03   0.0000000000E+00  0. -1
       25    1    1    2    0    0  -6.5781535501E+01   1.0289689608E+02  -6.9297090743E+02   7.1466681760E+02   1.2500000000E+02  0.  0
       25    1    1    2    0    0   6.5781535501E+01  -1.0289689608E+02  -2.8904647954E+03   2.8957428607E+03   1.2500000000E+02  0.  0
</event>
<event>
 4   0  0.3991300E-04  0.4495144E+03  0.7818609E-02  0.1027867E+00
       21   -1    0    0  502  501   0.0000000000E+00   0.0000000000E+00   6.5041080814E+01   6.5041080814E+01   0.0000000000E+00  0.  1
       21   -1    0    0  501  502   0.0000000000E+00   0.0000000000E+00  -7.7667537446E+02   7.7667537446E+02   0.0000000000E+00  0.  1
       25    1    1    2    0    0   9.1613229652E+01   9.6791039273E+01  -6.0088830234E+02   6.2805512578E+02   1.2500000000E+02  0.  0
       25    1    1    2    0    0  -9.1613229652E+01  -9.6791039273E+01  -1.1074599131E+02   2.1366132949E+02   1.2500000000E+02  0.  0
</event>
<event>
 4   0  0.3991300E-04  0.4535603E+03  0.7818609E-02  0.1026666E+00
       21   -1    0    0  502  501   0.0000000000E+00   0.0000000000E+00   8.3591356751E+01   8.3591356751E+01   0.0000000000E+00  0.  1
       21   -1    0    0  501  502   0.0000000000E+00   0.0000000000E+00  -6.1524583770E+02   6.1524583770E+02   0.0000000000E+00  0.  1
       25    1    1    2    0    0   1.8819769053E+02  -4.1321248125E+00  -2.3623825715E+02   3.2690818179E+02   1.2500000000E+02  0.  0
       25    1    1    2    0    0  -1.8819769053E+02   4.1321248125E+00  -2.9541622380E+02   3.7192901266E+02   1.2500000000E+02  0.  0
</event>
<event>
 4   0  0.3991300E-04  0.6122903E+03  0.7818609E-02  0.9880231E-01
       21   -1    0    0  502  501   0.0000000000E+00   0.0000000000E+00   2.8093455233E+02   2.8093455233E+02   0.0000000000E+00  0.  1
       21   -1    0    0  501  502   0.0000000000E+00   0.0000000000E+00  -3.3361809825E+02   3.3361809825E+02   0.0000000000E+00  0.  1
       25    1    1    2    0    0   1.4453842326E+02   2.1706482545E+02  -1.2716869336E+02   3.1591988038E+02   1.2500000000E+02  0.  0
       25    1    1    2    0    0  -1.4453842326E+02  -2.1706482545E+02   7.4485147443E+01   2.9863277020E+02   1.2500000000E+02  0.  0
</event>
<event>
 4   0  0.3991300E-04  0.4224078E+03  0.7818609E-02  0.1036285E+00
       21   -1    0    0  502  501   0.0000000000E+00   0.0000000000E+00   6.2755469418E+03   6.2755469418E+03   0.0000000000E+00  0.  1
       21   -1    0    0  501  502   0.0000000000E+00   0.0000000000E+00  -7.1080810720E+00   7.1080810720E+00   0.0000000000E+00  0. -1
       25    1    1    2    0    0  -8.9637986254E+01  -1.4469681665E+02   3.1811570845E+03   3.1881589567E+03   1.2500000000E+02  0.  0
       25    1    1    2    0    0   8.9637986254E+01   1.4469681665E+02   3.0872817763E+03   3.0944960662E+03   1.2500000000E+02  0.  0
</event>
<event>
 4   0  0.3991300E-04  0.3948582E+03  0.7818609E-02  0.1045575E+00
       21   -1    0    0  502  501   0.0000000000E+00   0.0000000000E+00   6.2990446747E+01   6.2990446747E+01   0.0000000000E+00  0. -1
       21   -1    0    0  501  502   0.0000000000E+00   0.0000000000E+00  -6.1879622637E+02   6.1879622637E+02   0.0000000000E+00  0. -1
       25    1    1    2    0    0  -1.0384795297E+02   9.9253160906E+01  -1.8788990208E+02   2.6751299518E+02   1.2500000000E+02  0.  0
       25    1    1    2    0    0   1.0384795297E+02  -9.9253160906E+01  -3.6791587755E+02   4.1427367794E+02   1.2500000000E+02  0.  0
</event>
<event>
 4   0  0.3991300E-04  0.5231289E+03  0.7818609E-02  0.1007912E+00
       21   -1    0    0  502  501   0.0000000000E+00   0.0000000000E+00   8.8151977777E+01   8.8151977777E+01   0.0000000000E+00  0. -1
       21   -1    0    0  501  502   0.0000000000E+00   0.0000000000E+00  -7.7611369039E+02   7.7611369039E+02   0.0000000000E+00  0. -1
       25    1    1    2    0    0   2.8617360449E+01  -2.0792481906E+02  -1.8953501499E+02   3.0919282916E+02   1.2500000000E+02  0.  0
       25    1    1    2    0    0  -2.8617360449E+01   2.0792481906E+02  -4.9842669762E+02   5.5507283901E+02   1.2500000000E+02  0.  0
</event>
<event>
 4   0  0.3991300E-04  0.2651522E+03  0.7818609E-02  0.1104087E+00
       21   -1    0    0  502  501   0.0000000000E+00   0.0000000000E+00   9.1987326859E+02   9.1987326859E+02   0.0000000000E+00  0. -1
       21   -1    0    0  501  502   0.0000000000E+00   0.0000000000E+00  -1.9107439309E+01   1.9107439309E+01   0.0000000000E+00  0. -1
       25    1    1    2    0    0   3.5612167568E+01  -4.0226395518E+00   3.5892336008E+02   3.8175304389E+02   1.2500000000E+02  0.  0
       25    1    1    2    0    0  -3.5612167568E+01   4.0226395518E+00   5.4184246920E+02   5.5722766401E+02   1.2500000000E+02  0.  0
</event>
<event>
 4   0  0.3991300E-04  0.4394157E+03  0.7818609E-02  0.1030926E+00
       21   -1    0    0  502  501   0.0000000000E+00   0.0000000000E+00   2.8003286263E+01   2.8003286263E+01   0.0000000000E+00  0. -1
       21   -1    0    0  501  502   0.0000000000E+00   0.0000000000E+00  -1.7237816210E+03   1.7237816210E+03   0.0000000000E+00  0. -1
       25    1    1    2    0    0  -4.0917596244E+01  -1.7569203141E+02  -8.0711425636E+02   8.3642116329E+02   1.2500000000E+02  0.  0
       25    1    1    2    0    0   4.0917596244E+01   1.7569203141E+02  -8.8866407840E+02   9.1536374400E+02   1.2500000000E+02  0.  0
</event>
<event>
 4   0  0.3991300E-04  0.4177696E+03  0.7818609E-02  0.1037795E+00
       21   -1    0    0  502  501   0.0000000000E+00   0.0000000000E+00   2.5196797660E+02   2.5196797660E+02   0.0000000000E+00  0. -1
       21   -1    0    0  501  502   0.0000000000E+00   0.0000000000E+00  -1.7316829410E+02   1.7316829410E+02   0.0000000000E+00  0. -1
       25    1    1    2    0    0   3.6513338616E+01  -1.0996256467E+02  -8.3489121400E+01   1.8979047109E+02   1.2500000000E+02  0.  0
       25    1    1    2    0    0  -3.6513338616E+01   1.0996256467E+02   1.6228880390E+02   2.3534579961E+02   1.2500000000E+02  0.  0
</event>
<event>
 4   0  0.3991300E-04  0.4595176E+03  0.7818609E-02  0.1024921E+00
       21   -1    0    0  502  501   0.0000000000E+00   0.0000000000E+00   1.3574089246E+01   1.3574089246E+01   0.0000000000E+00  0. -1
       21   -1    0    0  501  502   0.0000000000E+00   0.0000000000E+00  -3.8889615000E+03   3.8889615000E+03   0.0000000000E+00  0. -1
       25    1    1    2    0    0   6.4000791381E+01   1.2554982255E+02  -3.0549007333E+03   3.0607029176E+03   1.2500000000E+02  0.  0
       25    1    1    2    0    0  -6.4000791381E+01  -1.2554982255E+02  -8.2048667745E+02   8.4183267168E+02   1.2500000000E+02  0.  0
</event>
<event>
 4   0  0.3991300E-04  0.3819802E+03  0.7818609E-02  0.1050204E+00
       21   -1    0    0  502  501   0.0000000000E+00   0.0000000000E+00   6.6782254057E+01   6.6782254057E+01   0.0000000000E+00  0. -1
       21   -1    0    0  501  502   0.0000000000E+00   0.0000000000E+00  -5.4621117748E+02   5.4621117748E+02   0.0000000000E+00  0. -1
       25    1    1    2    0    0   1.3693787024E+02   3.7557296607E+01  -1.9757007958E+02   2.7353512970E+02   1.2500000000E+02  0.  0
       25    1    1    2    0    0  -1.3693787024E+02  -3.7557296607E+01  -2.8185884384E+02   3.3945830184E+02   1.2500000000E+02  0.  0
</event>
<event>
 4   0  0.3991300E-04  0.4756494E+03  0.7818609E-02  0.1020338E+00
       21   -1    0    0  502  501   0.0000000000E+00   0.0000000000E+00   3.8127989722E+02   3.8127989722E+02   0.0000000000E+00  0.  1
       21   -1    0    0  501  502   0.0000000000E+00   0.0000000000E+00  -1.4834400891E+02   1.4834400891E+02   0.0000000000E+00  0.  1
       25    1    1    2    0    0   8.7597857941E+01  -6.9567231515E+01  -7.1252925386E+01   1.8224972920E+02   1.2500000000E+02  0.  0
       25    1    1    2    0    0  -8.7597857941E+01   6.9567231515E+01   3.0418881370E+02   3.4737417693E+02   1.2500000000E+02  0.  0
</event>
<event>
 4   0  0.3991300E-04  0.4166622E+03  0.7818609E-02  0.1038158E+00
       21   -1    0    0  502  501   0.0000000000E+00   0.0000000000E+00   1.2011260568E+04   1.2011260568E+04   0.0000000000E+00  0. -1
       21   -1    0    0  501  502   0.0000000000E+00   0.0000000000E+00  -3.6134295213E+00   3.6134295213E+00   0.0000000000E+00  0. -1
       25    1    1    2    0    0  -4.7343002687E+01   9.9285112828E+01   9.6144268622E+03   9.6158685402E+03   1.2500000000E+02  0.  0
       25    1    1    2    0    0   4.7343002687E+01  -9.9285112828E+01   2.3932202759E+03   2.3990054570E+03   1.2500000000E+02  0.  0
</event>
<event>
 4   0  0.3991300E-04  0.3689514E+03  0.7818609E-02  0.1055095E+00
       21   -1    0    0  502  501   0.0000000000E+00   0.0000000000E+00   2.9745075852E+00   2.9745075852E+00   0.0000000000E+00  0.  1
       21   -1    0    0  501  502   0.0000000000E+00   0.0000000000E+00  -1.1440979967E+04   1.1440979967E+04   0.0000000000E+00  0.  1
       25    1    1    2    0    0   6.4678126799E+01  -1.0678284644E+02  -7.3662766194E+03   7.3683948096E+03   1.2500000000E+02  0.  0
       25    1    1    2    0    0  -6.4678126799E+01   1.0678284644E+02  -4.0717288401E+03   4.0755596651E+03   1.2500000000E+02  0.  0
</event>
<event>
 4   0  0.3991300E-04  0.4083104E+03  0.7818609E-02  0.1040939E+00
       21   -1    0    0  502  501   0.0000000000E+00   0.0000000000E+00   3.6298731253E+02   3.6298731253E+02   0.0000000000E+00  0. -1
       21   -1    0    0  501  502   0.0000000000E+00   0.0000000000E+00  -1.1482312553E+02   1.1482312553E+02   0.0000000000E+00  0. -1
       25    1    1    2    0    0   4.2650597523E+01  -1.5401195349E+02   9.7510701838E+01   2.2510462514E+02   1.2500000000E+02  0.  0
       25    1    1    2    0    0  -4.2650597523E+01   1.5401195349E+02   1.5065348516E+02   2.5270581291E+02   1.2500000000E+02  0.  0
</event>
<event>
 4   0  0.3991300E-04  0.4727252E+03  0.7818609E-02  0.1021154E+00
       21   -1    0    0  502  501   0.0000000000E+00   0.0000000000E+00   1.5559007923E+01   1.5559007923E+01   0.0000000000E+00  0.  1
       21   -1    0    0  501  502   0.0000000000E+00   0.0000000000E+00  -3.5906709197E+03   3.5906709197E+03   0.0000000000E+00  0.  1
       25    1    1    2    0    0  -7.7142509874E+01  -6.0615170454E+00  -3.1994558796E+03   3.2028316587E+03   1.2500000000E+02  0.  0
       25    1    1    2    0    0   7.7142509874E+01   6.0615170454E+00  -3.7565603226E+02   4.0339826895E+02   1.2500000000E+02  0.  0
</event>
<event>
 4   0  0.3991300E-04  0.8144939E+03  0.7818609E-02  0.9539272E-01
       21   -1    0    0  502  501   0.0000000000E+00   0.0000000000E+00   2.0069174661E+02   2.0069174661E+02   0.0000000000E+00  0.  1
       21   -1    0    0  501  502   0.0000000000E+00   0.0000000000E+00  -8.2639205696E+02   8.2639205696E+02   0.0000000000E+00  0.  1
       25    1    1    2    0    0  -3.6329473112E+02  -1.9562572020E+01  -1.4433056573E+02   4.1087962725E+02   1.2500000000E+02  0.  0
       25    1    1    2    0    0   3.6329473112E+02   1.9562572020E+01  -4.8136974461E+02   6.1620417632E+02   1.2500000000E+02  0.  0
</event>
<event>
 4   0  0.3991300E-04  0.3688600E+03  0.7818609E-02  0.1055130E+00
       21   -1    0    0  502  501   0.0000000000E+00   0.0000000000E+00   1.1489405168E+03   1.1489405168E+03   0.0000000000E+00  0.  1
       21   -1    0    0  501  502   0.0000000000E+00   0.0000000000E+00  -2.9605035149E+01   2.9605035149E+01   0.0000000000E+00  0.  1
       25    1    1    2    0    0   9.3844437194E+01  -9.5794004882E+01   6.2405953301E+02   6.5042952770E+02   1.2500000000E+02  0.  0
       25    1    1    2    0    0  -9.3844437194E+01   9.5794004882E+01   4.9527594860E+02   5.2811602421E+02   1.2500000000E+02  0.  0
</event>
<event>
 4   0  0.3991300E-04  0.4729652E+03  0.7818609E-02  0.1021087E+00
       21   -1    0    0  502  501   0.0000000000E+00   0.0000000000E+00   1.6775651759E+03   1.6775651759E+03   0.0000000000E+00  0.  1
       21   -1    0    0  501  502   0.0000000000E+00   0.0000000000E+00  -3.3336428382E+01   3.3336428382E+01   0.0000000000E+00  0.  1
       25    1    1    2    0    0   4.6969249739E+01  -1.7208321506E+02   1.1552346775E+03   1.1755895982E+03   1.2500000000E+02  0.  0
       25    1    1    2    0    0  -4.6969249739E+01   1.7208321506E+02   4.8899406999E+02   5.3531200604E+02   1.2500000000E+02  0.  0
</event>
<event>
 4   0  0.3991300E-04  0.3946743E+03  0.7818609E-02  0.1045640E+00
       21   -1    0    0  502  501   0.0000000000E+00   0.0000000000E+00   2.7338167173E+02   2.7338167173E+02   0.0000000000E+00  0. -1
       21   -1    0    0  501  502   0.0000000000E+00   0.0000000000E+00  -1.4244534656E+02   1.4244534656E+02   0.0000000000E+00  0. -1
       25    1    1    2    0    0  -1.4938526759E+02   2.1196100875E+01   4.0720685963E+01   2.0012098124E+02   1.2500000000E+02  0.  0
       25    1    1    2    0    0   1.4938526759E+02  -2.1196100875E+01   9.0215639201E+01   2.1570603706E+02   1.2500000000E+02  0.  0
</event>
<event>
 4   0  0.3991300E-04  0.3571613E+03  0.7818609E-02  0.1059714E+00
       21   -1    0    0  502  501   0.0000000000E+00   0.0000000000E+00   1.2815996675E+01   1.2815996675E+01   0.0000000000E+00  0.  1
       21   -1    0    0  501  502   0.0000000000E+00   0.0000000000E+00  -2.4883780400E+03   2.4883780400E+03   0.0000000000E+00  0.  1
       25    1    1    2    0    0   3.6450865861E+01  -2.9522789554E+01  -2.0683295007E+03   2.0726341173E+03   1.2500000000E+02  0.  0
       25    1    1    2    0    0  -3.6450865861E+01   2.9522789554E+01  -4.0723254269E+02   4.2855991944E+02   1.2500000000E+02  0.  0
</event>
<event>
 4   0  0.3991300E-04  0.5813633E+03  0.7818609E-02  0.9944844E-01
       21   -1    0    0  502  501   0.0000000000E+00   0.0000000000E+00   4.8019139251E+03   4.8019139251E+03   0.0000000000E+00  0. -1
       21   -1    0    0  501  502   0.0000000000E+00   0.0000000000E+00  -1.7596277472E+01   1.7596277472E+01   0.0000000000E+00  0. -1
       25    1    1    2    0    0  -2.3753205373E+02   5.8161460836E+01   1.6027953673E+03   1.6261556572E+03   1.2500000000E+02  0.  0
       25    1    1    2    0    0   2.3753205373E+02  -5.8161460836E+01   3.1815222803E+03   3.1933545453E+03   1.2500000000E+02  0.  0
</event>
<event>
 4   0  0.3991300E-04  0.5011199E+03  0.7818609E-02  0.1013487E+00
       21   -1    0    0  502  501   0.0000000000E+00   0.0000000000E+00   6.4131592620E+01   6.4131592620E+01   0.0000000000E+00  0.  1
       21   -1    0    0  501  502   0.0000000000E+00   0.0000000000E+00  -9.7892907635E+02   9.7892907635E+02   0.0000000000E+00  0.  1
       25    1    1    2    0    0   1.9240740455E+02   8.3091733426E+01  -3.3909500394E+02   4.1777418205E+02   1.2500000000E+02  0.  0
       25    1    1    2    0    0  -1.9240740455E+02  -8.3091733426E+01  -5.7570247978E+02   6.2528648691E+02   1.2500000000E+02  0.  0
</event>
<event>
 4   0  0.3991300E-04  0.5943839E+03  0.7818609E-02  0.9917127E-01
       21   -1    0    0  502  501   0.0000000000E+00   0.0000000000E+00   1.0165562529E+03   1.0165562529E+03   0.0000000000E+00  0. -1
       21   -1    0    0  501  502   0.0000000000E+00   0.0000000000E+00  -8.6884570445E+01   8.6884570445E+01   0.0000000000E+00  0. -1
       25    1    1    2    0    0  -1.1910405222E+02   1.7309324312E+02   7.7852010459E+02   8.1600588191E+02   1.2500000000E+02  0.  0
       25    1    1    2    0    0   1.1910405222E+02  -1.7309324312E+02   1.5115157788E+02   2.8743494145E+02   1.2500000000E+02  0.  0
</event>
<event>
 4   0  0.3991300E-04  0.3641750E+03  0.7818609E-02  0.1056943E+00
       21   -1    0    0  502  501   0.0000000000E+00   0.0000000000E+00   1.9026836841E+03   1.9026836841E+03   0.0000000000E+00  0. -1
       21   -1    0    0  501  502   0.0000000000E+00   0.0000000000E+00  -1.7425840283E+01   1.7425840283E+01   0.0000000000E+00  0. -1
       25    1    1    2    0    0   1.1388294330E+02  -5.9490290620E+01   1.1112202759E+03   1.1255860345E+03   1.2500000000E+02  0.  0
       25    1    1    2    0    0  -1.1388294330E+02   5.9490290620E+01   7.7403756783E+02   7.9452348981E+02   1.2500000000E+02  0.  0
</event>
<event>
 4   0  0.3991300E-04  0.5228337E+03  0.7818609E-02  0.1007985E+00
       21   -1    0    0  502  501   0.0000000000E+00   0.0000000000E+00   3.1280776614E+02   3.1280776614E+02   0.0000000000E+00  0. -1
       21   -1    0    0  501  502   0.0000000000E+00   0.0000000000E+00  -2.1846889773E+02   2.1846889773E+02   0.0000000000E+00  0. -1
       25    1    1    2    0    0   1.9500137740E+02  -4.2990731297E+01  -6.7974258323E+01   2.4519225102E+02   1.2500000000E+02  0.  0
       25    1    1    2    0    0  -1.9500137740E+02   4.2990731297E+01   1.6231312673E+02   2.8608441285E+02   1.2500000000E+02  0.  0
</event>
<event>
 4   0  0.3991300E-04  0.6764997E+03  0.7818609E-02  0.9758287E-01
       21   -1    0    0  502  501   0.0000000000E+00   0.0000000000E+00   5.0796899076E+02   5.0796899076E+02   0.0000000000E+00  0.  1
       21   -1    0    0  501  502   0.0000000000E+00   0.0000000000E+00  -2.2523612093E+02   2.2523612093E+02   0.0000000000E+00  0.  1
       25    1    1    2    0    0   6.2914478995E+00   8.5130082319E+01   4.6921356471E+02   4.9302442388E+02   1.2500000000E+02  0.  0
       25    1    1    2    0    0  -6.2914478995E+00  -8.5130082319E+01  -1.8648069488E+02   2.4018068781E+02   1.2500000000E+02  0.  0
</event>
<event>
 4   0  0.3991300E-04  0.4760066E+03  0.7818609E-02  0.1020238E+00
       21   -1    0    0  502  501   0.0000000000E+00   0.0000000000E+00   3.2974318795E+02   3.2974318795E+02   0.0000000000E+00  0. -1
       21   -1    0    0  501  502   0.0000000000E+00   0.0000000000E+00  -1.7178696344E+02   1.7178696344E+02   0.0000000000E+00  0. -1
       25    1    1    2    0    0  -2.0078242789E+01  -2.8119542943E+01  -1.3128902122E+02   1.8454173409E+02   1.2500000000E+02  0.  0
       25    1    1    2    0    0   2.0078242789E+01   2.8119542943E+01   2.8924524573E+02   3.1698841730E+02   1.2500000000E+02  0.  0
</event>
<event>
 4   0  0.3991300E-04  0.3823755E+03  0.7818609E-02  0.1050059E+00
       21   -1    0    0  502  501   0.0000000000E+00   0.0000000000E+00   1.8652661371E+02   1.8652661371E+02   0.0000000000E+00  0.  1
       21   -1    0    0  501  502   0.0000000000E+00   0.0000000000E+00  -1.9596531857E+02   1.9596531857E+02   0.0000000000E+00  0.  1
       25    1    1    2    0    0  -1.3466370255E+02  -4.6892990635E+01   1.9670074582E+01   1.9064411134E+02   1.2500000000E+02  0.  0
       25    1    1    2    0    0   1.3466370255E+02   4.6892990635E+01  -2.9108779439E+01   1.9184782093E+02   1.2500000000E+02  0.  0
</event>
<event>
 4   0  0.3991300E-04  0.7124149E+03  0.7818609E-02  0.9696234E-01
       21   -1    0    0  502  501   0.0000000000E+00   0.0000000000E+00   2.2014690639E+02   2.2014690639E+02   0.0000000000E+00  0.  1
       21   -1    0    0  501  502   0.0000000000E+00   0.0000000000E+00  -5.7635942116E+02   5.7635942116E+02   0.0000000000E+00  0.  1
       25    1    1    2    0    0   2.5497758957E+02   8.7333493688E+01   4.1604498816E+01   2.9999440765E+02   1.2500000000E+02  0.  0
       25    1    1    2    0    0  -2.5497758957E+02  -8.7333493688E+01  -3.9781701358E+02   4.9651191989E+02   1.2500000000E+02  0.  0
</event>
<event>
 4   0  0.3991300E-04  0.8155165E+03  0.7818609E-02  0.9537825E-01
       21   -1    0    0  502  501   0.0000000000E+00   0.0000000000E+00   3.2565715537E+02   3.2565715537E+02   0.0000000000E+00  0.  1
       21   -1    0    0  501  502   0.0000000000E+00   0.0000000000E+00  -5.1055772616E+02   5.1055772616E+02   0.0000000000E+00  0.  1
       25    1    1    2    0    0  -2.7538950001E+02   2.2945958582E+02  -2.4505883705E+02   4.5185164806E+02   1.2500000000E+02  0.  0
       25    1    1    2    0    0   2.7538950001E+02  -2.2945958582E+02   6.0158266260E+01   3.8436323347E+02   1.2500000000E+02  0.  0
</event>
<event>
 4   0  0.3991300E-04  0.3568031E+03  0.7818609E-02  0.1059857E+00
       21   -1    0    0  502  501   0.0000000000E+00   0.0000000000E+00   1.9419957099E+02   1.9419957099E+02   0.0000000000E+00  0.  1
       21   -1    0    0  501  502   0.0000000000E+00   0.0000000000E+00  -1.6388868676E+02   1.6388868676E+02   0.0000000000E+00  0.  1
       25    1    1    2    0    0   8.0248487031E+01   1.2294887019E+01  -8.3234036925E+01   1.7071581304E+02   1.2500000000E+02  0.  0
       25    1    1    2    0    0  -8.0248487031E+01  -1.2294887019E+01   1.1354492116E+02   1.8737244471E+02   1.2500000000E+02  0.  0
</event>
<event>
 4   0  0.3991300E-04  0.4473846E+03  0.7818609E-02  0.1028505E+00
       21   -1    0    0  502  501   0.0000000000E+00   0.0000000000E+00   6.2174285803E+02   6.2174285803E+02   0.0000000000E+00  0. -1
       21   -1    0    0  501  502   0.0000000000E+00   0.0000000000E+00  -8.0480609479E+01   8.0480609479E+01   0.0000000000E+00  0. -1
       25    1    1    2    0    0  -2.2113456010E+01   1.7197701763E+02   3.7413254298E+02   4.3088891752E+02   1.2500000000E+02  0.  0
       25    1    1    2    0    0   2.2113456010E+01  -1.7197701763E+02   1.6712970557E+02   2.7133454999E+02   1.2500000000E+02  0.  0
</event>
<event>
 4   0  0.3991300E-04  0.2972463E+03  0.7818609E-02  0.1086625E+00
       21   -1    0    0  502  501   0.0000000000E+00   0.0000000000E+00   2.9383611550E+02   2.9383611550E+02   0.0000000000E+00  0. -1
       21   -1    0    0  501  502   0.0000000000E+00   0.0000000000E+00  -7.5174013819E+01   7.5174013819E+01   0.0000000000E+00  0. -1
       25    1    1    2    0    0  -5.5273420351E+01   5.0727109256E+01   7.3448611277E+01   1.6324242435E+02   1.2500000000E+02  0.  0
       25    1    1    2    0    0   5.5273420351E+01  -5.0727109256E+01   1.4521349040E+02   2.0576770496E+02   1.2500000000E+02  0.  0
</event>
<event>
 4   0  0.3991300E-04  0.3711787E+03  0.7818609E-02  0.1054243E+00
       21   -1    0    0  502  501   0.0000000000E+00   0.0000000000E+00   3.0599167060E+03   3.0599167060E+03   0.0000000000E+00  0. -1
       21   -1    0    0  501  502   0.0000000000E+00   0.0000000000E+00  -1.1256321687E+01   1.1256321687E+01   0.0000000000E+00  0. -1
       25    1    1    2    0    0   5.3994055656E+01   1.0771446506E+02   9.8172003055E+02   9.9695385170E+02   1.2500000000E+02  0.  0
       25    1    1    2    0    0  -5.3994055656E+01  -1.0771446506E+02   2.0669403538E+03   2.0742191760E+03   1.2500000000E+02  0.  0
</event>
<event>
 4   0  0.3991300E-04  0.4103155E+03  0.7818609E-02  0.1040265E+00
       21   -1    0    0  502  501   0.0000000000E+00   0.0000000000E+00   8.8417701270E+02   8.8417701270E+02   0.0000000000E+00  0. -1
       21   -1    0    0  501  502   0.0000000000E+00   0.0000000000E+00  -4.7603262435E+01   4.7603262435E+01   0.0000000000E+00  0. -1
       25    1    1    2    0    0   7.8372509090E+01  -1.3978071472E+02   3.5470966036E+02   4.0880905267E+02   1.2500000000E+02  0.  0
       25    1    1    2    0    0  -7.8372509090E+01   1.3978071472E+02   4.8186408990E+02   5.2297122246E+02   1.2500000000E+02  0.  0
</event>
<event>
 4   0  0.3991300E-04  0.4112917E+03  0.7818609E-02  0.1039938E+00
       21   -1    0    0  502  501   0.0000000000E+00   0.0000000000E+00   2.1130880909E+04   2.1130880909E+04   0.0000000000E+00  0.  1
       21   -1    0    0  501  502   0.0000000000E+00   0.0000000000E+00  -2.0013465592E+00   2.0013465592E+00   0.0000000000E+00  0.  1
       25    1    1    2    0    0  -7.7342179875E+01   7.5326291060E+01   1.6859353346E+04   1.6860162399E+04   1.2500000000E+02  0.  0
       25    1    1    2    0    0   7.7342179875E+01  -7.5326291060E+01   4.2695262156E+03   4.2727198561E+03   1.2500000000E+02  0.  0
</event>
<event>
 4   0  0.3991300E-04  0.3149896E+03  0.7818609E-02  0.1077979E+00
       21   -1    0    0  502  501   0.0000000000E+00   0.0000000000E+00   3.1996280078E+02   3.1996280078E+02   0.0000000000E+00  0.  1
       21   -1    0    0  501  502   0.0000000000E+00   0.0000000000E+00  -7.7523409794E+01   7.7523409794E+01   0.0000000000E+00  0.  1
       25    1    1    2    0    0  -9.1063861232E+00  -2.4881648681E+01   5.0315125958E+00   1.2787626374E+02   1.2500000000E+02  0.  0
       25    1    1    2    0    0   9.1063861232E+00   2.4881648681E+01   2.3740787839E+02   2.6960994683E+02   1.2500000000E+02  0.  0
</event>
<event>
 4   0  0.3991300E-04  0.5821357E+03  0.7818609E-02  0.9943178E-01
       21   -1    0    0  502  501   0.0000000000E+00   0.0000000000E+00   1.2439568668E+03   1.2439568668E+03   0.0000000000E+00  0. -1
       21   -1    0    0  501  502   0.0000000000E+00   0.0000000000E+00  -6.8105661908E+01   6.8105661908E+01   0.0000000000E+00  0. -1
       25    1    1    2    0    0   1.0547141370E+02  -1.8285671635E+02   2.3488820444E+02   3.3964432339E+02   1.2500000000E+02  0.  0
       25    1    1    2    0    0  -1.0547141370E+02   1.8285671635E+02   9.4096300043E+02   9.7241820530E+02   1.2500000000E+02  0.  0
</event>
<event>
 4   0  0.3991300E-04  0.3462353E+03  0.7818609E-02  0.1064171E+00
       21   -1    0    0  502  501   0.0000000000E+00   0.0000000000E+00   3.7805471461E+01   3.7805471461E+01   0.0000000000E+00  0.  1
       21   -1    0    0  501  502   0.0000000000E+00   0.0000000000E+00  -7.9273513881E+02   7.9273513881E+02   0.0000000000E+00  0.  1
       25    1    1    2    0    0  -7.6219007167E+01  -5.9172015348E+01  -2.0726907260E+02   2.6056886404E+02   1.2500000000E+02  0.  0
       25    1    1    2    0    0   7.6219007167E+01   5.9172015348E+01  -5.4766059475E+02   5.6997174623E+02   1.2500000000E+02  0.  0
</event>
<event>
 4   0  0.3991300E-04  0.5699851E+03  0.7818609E-02  0.9969712E-01
       21   -1    0    0  502  501   0.0000000000E+00   0.0000000000E+00   8.9030116300E+01   8.9030116300E+01   0.0000000000E+00  0.  1
       21   -1    0    0  501  502   0.0000000000E+00   0.0000000000E+00  -9.1228411614E+02   9.1228411614E+02   0.0000000000E+00  0.  1
       25    1    1    2    0    0   1.4978952571E+02   7.6608997986E+01  -7.2390483794E+01   2.2174585166E+02   1.2500000000E+02  0.  0
       25    1    1    2    0    0  -1.4978952571E+02  -7.6608997986E+01  -7.5086351605E+02   7.7956838078E+02   1.2500000000E+02  0.  0
</event>
<event>
 4   0  0.3991300E-04  0.3887000E+03  0.7818609E-02  0.1047764E+00
       21   -1    0    0  502  501   0.0000000000E+00   0.0000000000E+00   3.0045557866E+03   3.0045557866E+03   0.0000000000E+00  0.  1
       21   -1    0    0  501  502   0.0000000000E+00   0.0000000000E+00  -1.2571552355E+01   1.2571552355E+01   0.0000000000E+00  0.  1
       25    1    1    2    0    0   5.6136307911E+01   1.1910000624E+02   9.5761172789E+02   9.7466985074E+02   1.2500000000E+02  0.  0
       25    1    1    2    0    0  -5.6136307911E+01  -1.1910000624E+02   2.0343725064E+03   2.0424574882E+03   1.2500000000E+02  0.  0
</event>
<event>
 4   0  0.3991300E-04  0.6070649E+03  0.7818609E-02  0.9890856E-01
       21   -1    0    0  502  501   0.0000000000E+00   0.0000000000E+00   5.8117127837E+02   5.8117127837E+02   0.0000000000E+00  0. -1
       21   -1    0    0  501  502   0.0000000000E+00   0.0000000000E+00  -1.5852805463E+02   1.5852805463E+02   0.0000000000E+00  0. -1
       25    1    1    2    0    0  -2.4089658842E+02   3.4515703959E+01   5.1127000735E+01   2.7831900822E+02   1.2500000000E+02  0.  0
       25    1    1    2    0    0   2.4089658842E+02  -3.4515703959E+01   3.7151622301E+02   4.6138032477E+02   1.2500000000E+02  0.  0
</event>
<event>
 4   0  0.3991300E-04  0.3981805E+03  0.7818609E-02  0.1044412E+00
       21   -1    0    0  502  501   0.0000000000E+00   0.0000000000E+00   2.3361120797E+00   2.3361120797E+00   0.0000000000E+00  0.  1
       21   -1    0    0  501  502   0.0000000000E+00   0.0000000000E+00  -1.6967051434E+04   1.6967051434E+04   0.0000000000E+00  0.  1
       25    1    1    2    0    0  -1.0737918836E+02  -7.1755941840E+01  -1.2131736507E+04   1.2133067826E+04   1.2500000000E+02  0.  0
       25    1    1    2    0    0   1.0737918836E+02   7.1755941840E+01  -4.8329788151E+03   4.8363197198E+03   1.2500000000E+02  0.  0
</event>
<event>
 4   0  0.3991300E-04  0.6012022E+03  0.7818609E-02  0.9902915E-01
       21   -1    0    0  502  501   0.0000000000E+00   0.0000000000E+00   2.4591873197E+02   2.4591873197E+02   0.0000000000E+00  0.  1
       21   -1    0    0  501  502   0.0000000000E+00   0.0000000000E+00  -3.6744262305E+02   3.6744262305E+02   0.0000000000E+00  0.  1
       25    1    1    2    0    0  -1.3358954785E+02  -1.6723658369E+02  -2.3426549517E+02   3.4105654142E+02   1.2500000000E+02  0.  0
       25    1    1    2    0    0   1.3358954785E+02   1.6723658369E+02   1.1274160408E+02   2.7230481360E+02   1.2500000000E+02  0.  0
</event>
<event>
 4   0  0.3991300E-04  0.3708930E+03  0.7818609E-02  0.1054352E+00
       21   -1    0    0  502  501   0.0000000000E+00   0.0000000000E+00   9.4648170030E+00   9.4648170030E+00   0.0000000000E+00  0. -1
       21   -1    0    0  501  502   0.0000000000E+00   0.0000000000E+00  -3.6334983762E+03   3.6334983762E+03   0.0000000000E+00  0. -1
       25    1    1    2    0    0   8.5126485880E+01  -1.0448034550E+02  -1.5708764981E+03   1.5815943328E+03   1.2500000000E+02  0.  0
       25    1    1    2    0    0  -8.5126485880E+01   1.0448034550E+02  -2.0531570611E+03   2.0613688604E+03   1.2500000000E+02  0.  0
</event>
<event>
 4   0  0.3991300E-04  0.3371601E+03  0.7818609E-02  0.1068012E+00
       21   -1    0    0  502  501   0.0000000000E+00   0.0000000000E+00   1.8789371697E+01   1.8789371697E+01   0.0000000000E+00  0. -1
       21   -1    0    0  501  502   0.0000000000E+00   0.0000000000E+00  -1.5125168206E+03   1.5125168206E+03   0.0000000000E+00  0. -1
       25    1    1    2    0    0  -8.5927558797E+01  -7.2803551581E+01  -6.9915598205E+02   7.1911611700E+02   1.2500000000E+02  0.  0
       25    1    1    2    0    0   8.5927558797E+01   7.2803551581E+01  -7.9457146686E+02   8.1219007531E+02   1.2500000000E+02  0.  0
</event>
<event>
 4   0  0.3991300E-04  0.5306575E+03  0.7818609E-02  0.1006073E+00
       21   -1    0    0  502  501   0.0000000000E+00   0.0000000000E+00   6.2207940054E+02   6.2207940054E+02   0.0000000000E+00  0. -1
       21   -1    0    0  501  502   0.0000000000E+00   0.0000000000E+00  -1.1316778496E+02   1.1316778496E+02   0.0000000000E+00  0. -1
       25    1    1    2    0    0   4.3065672175E+01  -1.3295423825E+02   5.1456438163E+02   5.4766137753E+02   1.2500000000E+02  0.  0
       25    1    1    2    0    0  -4.3065672175E+01   1.3295423825E+02  -5.6527660471E+00   1.8758580797E+02   1.2500000000E+02  0.  0
</event>
<event>
 4   0  0.3991300E-04  0.4162344E+03  0.7818609E-02  0.1038299E+00
       21   -1    0    0  502  501   0.0000000000E+00   0.0000000000E+00   5.4028729907E+01   5.4028729907E+01   0.0000000000E+00  0.  1
       21   -1    0    0  501  502   0.0000000000E+00   0.0000000000E+00  -8.0166174340E+02   8.0166174340E+02   0.0000000000E+00  0.  1
       25    1    1    2    0    0  -1.5543545478E+02  -5.6126866057E+01  -3.3388122613E+02   3.9295302373E+02   1.2500000000E+02  0.  0
       25    1    1    2    0    0   1.5543545478E+02   5.6126866057E+01  -4.1375178736E+02   4.6273744958E+02   1.2500000000E+02  0.  0
</event>
<event>
 4   0  0.3991300E-04  0.4139236E+03  0.7818609E-02  0.1039062E+00
       21   -1    0    0  502  501   0.0000000000E+00   0.0000000000E+00   2.2669944188E+02   2.2669944188E+02   0.0000000000E+00  0.  1
       21   -1    0    0  501  502   0.0000000000E+00   0.0000000000E+00  -1.8894261470E+02   1.8894261470E+02   0.0000000000E+00  0.  1
       25    1    1    2    0    0   4.8144255943E+01   1.1645590436E+02   1.2575495899E+02   2.1752966867E+02   1.2500000000E+02  0.  0
       25    1    1    2    0    0  -4.8144255943E+01  -1.1645590436E+02  -8.7998131821E+01   1.9811238791E+02   1.2500000000E+02  0.  0
</event>
<event>
 4   0  0.3991300E-04  0.4625927E+03  0.7818609E-02  0.1024032E+00
       21   -1    0    0  502  501   0.0000000000E+00   0.0000000000E+00   5.5606970045E+02   5.5606970045E+02   0.0000000000E+00  0. -1
       21   -1    0    0  501  502   0.0000000000E+00   0.0000000000E+00  -9.6207379770E+01   9.6207379770E+01   0.0000000000E+00  0. -1
       25    1    1    2    0    0  -1.8598087945E+02  -4.2958366028E+01   1.7644782868E+02   2.8843221904E+02   1.2500000000E+02  0.  0
       25    1    1    2    0    0   1.8598087945E+02   4.2958366028E+01   2.8341449200E+02   3.6384486118E+02   1.2500000000E+02  0.  0
</event>
<event>
 4   0  0.3991300E-04  0.4351218E+03  0.7818609E-02  0.1032254E+00
       21   -1    0    0  502  501   0.0000000000E+00   0.0000000000E+00   3.2170032111E+01   3.2170032111E+01   0.0000000000E+00  0. -1
       21   -1    0    0  501  502   0.0000000000E+00   0.0000000000E+00  -1.4713306065E+03   1.4713306065E+03   0.0000000000E+00  0. -1
       25    1    1    2    0    0  -1.6847313092E+02  -4.0370530554E+01  -8.6182923263E+02   8.8791193358E+02   1.2500000000E+02  0.  0
       25    1    1    2    0    0   1.6847313092E+02   4.0370530554E+01  -5.7733134174E+02   6.1558870501E+02   1.2500000000E+02  0.  0
</event>
<event>
 4   0  0.3991300E-04  0.7322992E+03  0.7818609E-02  0.9663537E-01
       21   -1    0    0  502  501   0.0000000000E+00   0.0000000000E+00   1.4802861288E+03   1.4802861288E+03   0.0000000000E+00  0. -1
       21   -1    0    0  501  502   0.0000000000E+00   0.0000000000E+00  -9.0567301095E+01   9.0567301095E+01   0.0000000000E+00  0. -1
       25    1    1    2    0    0  -2.1150958854E+02  -7.5160110831E+01   1.3525943845E+02   2.9035403216E+02   1.2500000000E+02  0.  0
       25    1    1    2    0    0   2.1150958854E+02   7.5160110831E+01   1.2544593893E+03   1.2804993978E+03   1.2500000000E+02  0.  0
</event>
<event>
 4   0  0.3991300E-04  0.4201731E+03  0.7818609E-02  0.1037010E+00
       21   -1    0    0  502  501   0.0000000000E+00   0.0000000000E+00   9.7967819238E+01   9.7967819238E+01   0.0000000000E+00  0.  1
       21   -1    0    0  501  502   0.0000000000E+00   0.0000000000E+00  -4.5051889049E+02   4.5051889049E+02   0.0000000000E+00  0.  1
       25    1    1    2    0    0  -1.1798347445E+02   8.9754598456E+01  -2.8180477673E+02   3.4207443689E+02   1.2500000000E+02  0.  0
       25    1    1    2    0    0   1.1798347445E+02  -8.9754598456E+01  -7.0746294523E+01   2.0641227283E+02   1.2500000000E+02  0.  0
</event>
<event>
 4   0  0.3991300E-04  0.4394420E+03  0.7818609E-02  0.1030918E+00
       21   -1    0    0  502  501   0.0000000000E+00   0.0000000000E+00   1.1860612602E+02   1.1860612602E+02   0.0000000000E+00  0. -1
       21   -1    0    0  501  502   0.0000000000E+00   0.0000000000E+00  -4.0703898068E+02   4.0703898068E+02   0.0000000000E+00  0. -1
       25    1    1    2    0    0   1.1629622083E+01  -1.2510810946E+02   1.1124044869E+01   1.7758387184E+02   1.2500000000E+02  0.  0
       25    1    1    2    0    0  -1.1629622083E+01   1.2510810946E+02  -2.9955689953E+02   3.4806123487E+02   1.2500000000E+02  0.  0
</event>
<event>
 4   0  0.3991300E-04  0.4719342E+03  0.7818609E-02  0.1021376E+00
       21   -1    0    0  502  501   0.0000000000E+00   0.0000000000E+00   1.8143376754E+02   1.8143376754E+02   0.0000000000E+00  0.  1
       21   -1    0    0  501  502   0.0000000000E+00   0.0000000000E+00  -3.0689142577E+02   3.0689142577E+02   0.0000000000E+00  0.  1
       25    1    1    2    0    0  -2.9267463964E+01  -1.5358033947E+02   6.6558644059E+01   2.1094681372E+02   1.2500000000E+02  0.  0
       25    1    1    2    0    0   2.9267463964E+01   1.5358033947E+02  -1.9201630229E+02   2.7737837959E+02   1.2500000000E+02  0.  0
</event>
<event>
 4   0  0.3991300E-04  0.4034679E+03  0.7818609E-02  0.1042585E+00
       21   -1    0    0  502  501   0.0000000000E+00   0.0000000000E+00   8.1555182164E+02   8.1555182164E+02   0.0000000000E+00  0. -1
       21   -1    0    0  501  502   0.0000000000E+00   0.0000000000E+00  -4.9900663774E+01   4.9900663774E+01   0.0000000000E+00  0. -1
       25    1    1    2    0    0   9.0937120522E+01   7.4874160930E+01   6.0979291381E+02   6.3352040030E+02   1.2500000000E+02  0.  0
       25    1    1    2    0    0  -9.0937120522E+01  -7.4874160930E+01   1.5585824405E+02   2.3193208511E+02   1.2500000000E+02  0.  0
</event>
<event>
 4   0  0.3991300E-04  0.3943099E+03  0.7818609E-02  0.1045768E+00
       21   -1    0    0  502  501   0.0000000000E+00   0.0000000000E+00   2.3408311544E+03   2.3408311544E+03   0.0000000000E+00  0. -1
       21   -1    0    0  501  502   0.0000000000E+00   0.0000000000E+00  -1.6605241249E+01   1.6605241249E+01   0.0000000000E+00  0. -1
       25    1    1    2    0    0  -7.0032645296E+01  -7.9375288540E+01   1.8181322958E+03   1.8254958375E+03   1.2500000000E+02  0.  0
       25    1    1    2    0    0   7.0032645296E+01   7.9375288540E+01   5.0609361730E+02   5.3194055806E+02   1.2500000000E+02  0.  0
</event>
<event>
 4   0  0.3991300E-04  0.4525932E+03  0.7818609E-02  0.1026952E+00
       21   -1    0    0  502  501   0.0000000000E+00   0.0000000000E+00   6.5737597637E+02   6.5737597637E+02   0.0000000000E+00  0.  1
       21   -1    0    0  501  502   0.0000000000E+00   0.0000000000E+00  -7.7900856527E+01   7.7900856527E+01   0.0000000000E+00  0. -1
       25    1    1    2    0    0   6.6653863478E+01   1.7073816382E+02   3.6222568590E+02   4.2476664845E+02   1.2500000000E+02  0.  0
       25    1    1    2    0    0  -6.6653863478E+01  -1.7073816382E+02   2.1724943394E+02   3.1051018446E+02   1.2500000000E+02  0.  0
</event>
<event>
 4   0  0.3991300E-04  0.5622501E+03  0.7818609E-02  0.9986976E-01
       21   -1    0    0  502  501   0.0000000000E+00   0.0000000000E+00   4.1327220246E+03   4.1327220246E+03   0.0000000000E+00  0. -1
       21   -1    0    0  501  502   0.0000000000E+00   0.0000000000E+00  -1.9123304250E+01   1.9123304250E+01   0.0000000000E+00  0. -1
       25    1    1    2    0    0  -1.3978243837E+02   2.0927529260E+02   1.9945679633E+03   2.0142645404E+03   1.2500000000E+02  0.  0
       25    1    1    2    0    0   1.3978243837E+02  -2.0927529260E+02   2.1190307571E+03   2.1375807885E+03   1.2500000000E+02  0.  0
</event>
<event>
 4   0  0.3991300E-04  0.3908345E+03  0.7818609E-02  0.1047000E+00
       21   -1    0    0  502  501   0.0000000000E+00   0.0000000000E+00   1.4291223542E+02   1.4291223542E+02   0.0000000000E+00  0. -1
       21   -1    0    0  501  502   0.0000000000E+00   0.0000000000E+00  -2.6721221345E+02   2.6721221345E+02   0.0000000000E+00  0. -1
       25    1    1    2    0    0   5.0277357903E+01  -1.0585575894E+02   3.6453960908E+01   1.7517746911E+02   1.2500000000E+02  0.  0
       25    1    1    2    0    0  -5.0277357903E+01   1.0585575894E+02  -1.6075393894E+02   2.3494697976E+02   1.2500000000E+02  0.  0
</event>
<event>
 4   0  0.3991300E-04  0.8144397E+03  0.7818609E-02  0.9539348E-01
       21   -1    0    0  502  501   0.0000000000E+00   0.0000000000E+00   1.2841651472E+03   1.2841651472E+03   0.0000000000E+00  0.  1
       21   -1    0    0  501  502   0.0000000000E+00   0.0000000000E+00  -1.2913293191E+02   1.2913293191E+02   0.0000000000E+00  0.  1
       25    1    1    2    0    0  -1.6400828698E+02   1.2933692773E+02   1.1440228046E+03   1.1696323938E+03   1.2500000000E+02  0.  0
       25    1    1    2    0    0   1.6400828698E+02  -1.2933692773E+02   1.1009410630E+01   2.4366568530E+02   1.2500000000E+02  0.  0
</event>
<event>
 4   0  0.3991300E-04  0.3263365E+03  0.7818609E-02  0.1072769E+00
       21   -1    0    0  502  501   0.0000000000E+00   0.0000000000E+00   1.7011879511E+03   1.7011879511E+03   0.0000000000E+00  0. -1
       21   -1    0    0  501  502   0.0000000000E+00   0.0000000000E+00  -1.5650170920E+01   1.5650170920E+01   0.0000000000E+00  0. -1
       25    1    1    2    0    0   6.6273267879E+01   3.2015769895E+01   4.4971876136E+02   4.7253478166E+02   1.2500000000E+02  0.  0
       25    1    1    2    0    0  -6.6273267879E+01  -3.2015769895E+01   1.2358190188E+03   1.2443033404E+03   1.2500000000E+02  0.  0
</event>
<event>
 4   0  0.3991300E-04  0.3788317E+03  0.7818609E-02  0.1051366E+00
       21   -1    0    0  502  501   0.0000000000E+00   0.0000000000E+00   4.2956684155E+01   4.2956684155E+01   0.0000000000E+00  0.  1
       21   -1    0    0  501  502   0.0000000000E+00   0.0000000000E+00  -8.3522171793E+02   8.3522171793E+02   0.0000000000E+00  0.  1
       25    1    1    2    0    0   1.2504720145E+02   4.9789487216E+01  -2.8895698705E+02   3.4239879672E+02   1.2500000000E+02  0.  0
       25    1    1    2    0    0  -1.2504720145E+02  -4.9789487216E+01  -5.0330804673E+02   5.3577960537E+02   1.2500000000E+02  0.  0
</event>
<event>
 4   0  0.3991300E-04  0.5272125E+03  0.7818609E-02  0.1006910E+00
       21   -1    0    0  502  501   0.0000000000E+00   0.0000000000E+00   1.3759295213E+02   1.3759295213E+02   0.0000000000E+00  0.  1
       21   -1    0    0  501  502   0.0000000000E+00   0.0000000000E+00  -5.0502769795E+02   5.0502769795E+02   0.0000000000E+00  0.  1
       25    1    1    2    0    0  -1.9356293201E+02  -1.1665821734E+02  -1.1936320152E+02   2.8451418629E+02   1.2500000000E+02  0.  0
       25    1    1    2    0    0   1.9356293201E+02   1.1665821734E+02  -2.4807154430E+02   3.5810646380E+02   1.2500000000E+02  0.  0
</event>
<event>
 4   0  0.3991300E-04  0.3646148E+03  0.7818609E-02  0.1056771E+00
       21   -1    0    0  502  501   0.0000000000E+00   0.0000000000E+00   1.0314932064E+02   1.0314932064E+02   0.0000000000E+00  0. -1
       21   -1    0    0  501  502   0.0000000000E+00   0.0000000000E+00  -3.2221236186E+02   3.2221236186E+02   0.0000000000E+00  0. -1
       25    1    1    2    0    0  -1.2789291365E+02  -1.5882329825E+01  -7.2600748819E+01   1.9366133969E+02   1.2500000000E+02  0.  0
       25    1    1    2    0    0   1.2789291365E+02   1.5882329825E+01  -1.4646229240E+02   2.3170034281E+02   1.2500000000E+02  0.  0
</event>
<event>
 4   0  0.3991300E-04  0.6427698E+03  0.7818609E-02  0.9820441E-01
       21   -1    0    0  502  501   0.0000000000E+00   0.0000000000E+00   1.8412394985E+02   1.8412394985E+02   0.0000000000E+00  0. -1
       21   -1    0    0  501  502   0.0000000000E+00   0.0000000000E+00  -5.6097135050E+02   5.6097135050E+02   0.0000000000E+00  0. -1
       25    1    1    2    0    0  -4.5006496072E+00   1.9209535197E+02   7.2697278957E+01   2.4048029953E+02   1.2500000000E+02  0.  0
       25    1    1    2    0    0   4.5006496072E+00  -1.9209535197E+02  -4.4954467961E+02   5.0461500083E+02   1.2500000000E+02  0.  0
</event>
<event>
 4   0  0.3991300E-04  0.4545168E+03  0.7818609E-02  0.1026384E+00
       21   -1    0    0  502  501   0.0000000000E+00   0.0000000000E+00   1.0143141963E+02   1.0143141963E+02   0.0000000000E+00  0. -1
       21   -1    0    0  501  502   0.0000000000E+00   0.0000000000E+00  -5.0917538541E+02   5.0917538541E+02   0.0000000000E+00  0. -1
       25    1    1    2    0    0   1.3885636672E+02   1.0245626186E+02  -9.7724776533E+01   2.3442164602E+02   1.2500000000E+02  0.  0
       25    1    1    2    0    0  -1.3885636672E+02  -1.0245626186E+02  -3.1001918925E+02   3.7618515903E+02   1.2500000000E+02  0.  0
</event>
<event>
 4   0  0.3991300E-04  0.4573103E+03  0.7818609E-02  0.1025564E+00
       21   -1    0    0  502  501   0.0000000000E+00   0.0000000000E+00   5.4826657183E+02   5.4826657183E+02   0.0000000000E+00  0. -1
       21   -1    0    0  501  502   0.0000000000E+00   0.0000000000E+00  -9.5360859195E+01   9.5360859195E+01   0.0000000000E+00  0. -1
       25    1    1    2    0    0   1.0300498803E+02   3.9848836447E+01   6.3357907168E+00   1.6692243578E+02   1.2500000000E+02  0.  0
       25    1    1    2    0    0  -1.0300498803E+02  -3.9848836447E+01   4.4656992192E+02   4.7670499524E+02   1.2500000000E+02  0.  0
</event>
<event>
 4   0  0.3991300E-04  0.5156008E+03  0.7818609E-02  0.1009785E+00
       21   -1    0    0  502  501   0.0000000000E+00   0.0000000000E+00   4.8911998326E+02   4.8911998326E+02   0.0000000000E+00  0. -1
       21   -1    0    0  501  502   0.0000000000E+00   0.0000000000E+00  -1.3587880662E+02   1.3587880662E+02   0.0000000000E+00  0.  1
       25    1    1    2    0    0  -2.6958605652E+01  -2.1198649465E+02   8.9453436756E+01   2.6323365606E+02   1.2500000000E+02  0.  0
       25    1    1    2    0    0   2.6958605652E+01   2.1198649465E+02   2.6378773988E+02   3.6176513382E+02   1.2500000000E+02  0.  0
</event>
<event>
 4   0  0.3991300E-04  0.1363975E+04  0.7818609E-02  0.8980316E-01
       21   -1    0    0  502  501   0.0000000000E+00   0.0000000000E+00   1.1162900249E+04   1.1162900249E+04   0.0000000000E+00  0. -1
       21   -1    0    0  501  502   0.0000000000E+00   0.0000000000E+00  -4.1665422888E+01   4.1665422888E+01   0.0000000000E+00  0. -1
       25    1    1    2    0    0  -4.2049309416E+02   1.9025186609E+02   9.5552628685E+03   9.5672192251E+03   1.2500000000E+02  0.  0
       25    1    1    2    0    0   4.2049309416E+02  -1.9025186609E+02   1.5659719574E+03   1.6373464466E+03   1.2500000000E+02  0.  0
</event>
<event>
 4   0  0.3991300E-04  0.3933786E+03  0.7818609E-02  0.1046097E+00
       21   -1    0    0  502  501   0.0000000000E+00   0.0000000000E+00   4.3780087228E+01   4.3780087228E+01   0.0000000000E+00  0.  1
       21   -1    0    0  501  502   0.0000000000E+00   0.0000000000E+00  -8.8365933997E+02   8.8365933997E+02   0.0000000000E+00  0.  1
       25    1    1    2    0    0  -1.2378296462E+01  -9.4312104156E+00  -7.7608556633E+02   7.8624167800E+02   1.2500000000E+02  0.  0
       25    1    1    2    0    0   1.2378296462E+01   9.4312104156E+00  -6.3793686408E+01   1.4119774920E+02   1.2500000000E+02  0.  0
</event>
<event>
 4   0  0.3991300E-04  0.5090782E+03  0.7818609E-02  0.1011436E+00
       21   -1    0    0  502  501   0.0000000000E+00   0.0000000000E+00   5.7515722834E+02   5.7515722834E+02   0.0000000000E+00  0. -1
       21   -1    0    0  501  502   0.0000000000E+00   0.0000000000E+00  -1.1264774617E+02   1.1264774617E+02   0.0000000000E+00  0. -1
       25    1    1    2    0    0   1.8582746920E+02   3.1071990544E+01   3.8920882219E+02   4.5011756706E+02   1.2500000000E+02  0.  0
       25    1    1    2    0    0  -1.8582746920E+02  -3.1071990544E+01   7.3300659983E+01   2.3768740745E+02   1.2500000000E+02  0.  0
</event>
<event>
 4   0  0.3991300E-04  0.4117592E+03  0.7818609E-02  0.1039782E+00
       21   -1    0    0  502  501   0.0000000000E+00   0.0000000000E+00   7.5101694254E+01   7.5101694254E+01   0.0000000000E+00  0.  1
       21   -1    0    0  501  502   0.0000000000E+00   0.0000000000E+00  -5.6438676437E+02   5.6438676437E+02   0.0000000000E+00  0.  1
       25    1    1    2    0    0  -7.1943108196E+01   2.3261538424E+01  -1.9343846694E+01   1.4736381643E+02   1.2500000000E+02  0.  0
       25    1    1    2    0    0   7.1943108196E+01  -2.3261538424E+01  -4.6994122343E+02   4.9212464220E+02   1.2500000000E+02  0.  0
</event>
<event>
 4   0  0.3991300E-04  0.5704628E+03  0.7818609E-02  0.9968655E-01
       21   -1    0    0  502  501   0.0000000000E+00   0.0000000000E+00   5.6706997543E+02   5.6706997543E+02   0.0000000000E+00  0.  1
       21   -1    0    0  501  502   0.0000000000E+00   0.0000000000E+00  -1.4346898718E+02   1.4346898718E+02   0.0000000000E+00  0.  1
       25    1    1    2    0    0  -5.2848416038E+01   2.4893894381E+02   2.5056091162E+02   3.7837722348E+02   1.2500000000E+02  0.  0
       25    1    1    2    0    0   5.2848416038E+01  -2.4893894381E+02   1.7304007663E+02   3.3216173913E+02   1.2500000000E+02  0.  0
</event>
<event>
 4   0  0.3991300E-04  0.3741387E+03  0.7818609E-02  0.1053122E+00
       21   -1    0    0  502  501   0.0000000000E+00   0.0000000000E+00   1.4504391794E+03   1.4504391794E+03   0.0000000000E+00  0. -1
       21   -1    0    0  501  502   0.0000000000E+00   0.0000000000E+00  -2.4127132663E+01   2.4127132663E+01   0.0000000000E+00  0. -1
       25    1    1    2    0    0   4.4116072339E+01  -8.3796816665E+00   1.2323446016E+03   1.2394816110E+03   1.2500000000E+02  0.  0
       25    1    1    2    0    0  -4.4116072339E+01   8.3796816665E+00   1.9396744514E+02   2.3508470107E+02   1.2500000000E+02  0.  0
</event>
<event>
 4   0  0.3991300E-04  0.4863989E+03  0.7818609E-02  0.1017391E+00
       21   -1    0    0  502  501   0.0000000000E+00   0.0000000000E+00   7.7823889800E+00   7.7823889800E+00   0.0000000000E+00  0. -1
       21   -1    0    0  501  502   0.0000000000E+00   0.0000000000E+00  -7.5999749118E+03   7.5999749118E+03   0.0000000000E+00  0. -1
       25    1    1    2    0    0   9.6908623216E+01  -7.2959814071E+01  -6.4507610911E+03   6.4531122778E+03   1.2500000000E+02  0.  0
       25    1    1    2    0    0  -9.6908623216E+01   7.2959814071E+01  -1.1414314317E+03   1.1546450229E+03   1.2500000000E+02  0.  0
</event>
<event>
 4   0  0.3991300E-04  0.6345324E+03  0.7818609E-02  0.9836244E-01
       21   -1    0    0  502  501   0.0000000000E+00   0.0000000000E+00   5.4812896327E+01   5.4812896327E+01   0.0000000000E+00  0.  1
       21   -1    0    0  501  502   0.0000000000E+00   0.0000000000E+00  -1.8363899111E+03   1.8363899111E+03   0.0000000000E+00  0.  1
       25    1    1    2    0    0   1.4278523857E+02  -7.8439187563E+01  -1.6995586143E+02   2.6655266897E+02   1.2500000000E+02  0.  0
       25    1    1    2    0    0  -1.4278523857E+02   7.8439187563E+01  -1.6116211533E+03   1.6246501384E+03   1.2500000000E+02  0.  0
</event>
<event>
 4   0  0.3991300E-04  0.2761839E+03  0.7818609E-02  0.1097792E+00
       21   -1    0    0  502  501   0.0000000000E+00   0.0000000000E+00   2.2100935648E+02   2.2100935648E+02   0.0000000000E+00  0. -1
       21   -1    0    0  501  502   0.0000000000E+00   0.0000000000E+00  -8.6283140729E+01   8.6283140729E+01   0.0000000000E+00  0. -1
       25    1    1    2    0    0  -5.1882853980E+01   1.2069038903E+01   3.9953150994E+01   1.4162890422E+02   1.2500000000E+02  0.  0
       25    1    1    2    0    0   5.1882853980E+01  -1.2069038903E+01   9.4773064753E+01   1.6566359298E+02   1.2500000000E+02  0.  0
</event>
<event>
 4   0  0.3991300E-04  0.4584663E+03  0.7818609E-02  0.1025227E+00
       21   -1    0    0  502  501   0.0000000000E+00   0.0000000000E+00   2.9115581676E+02   2.9115581676E+02   0.0000000000E+00  0.  1
       21   -1    0    0  501  502   0.0000000000E+00   0.0000000000E+00  -1.8048011305E+02   1.8048011305E+02   0.0000000000E+00  0.  1
       25    1    1    2    0    0   4.6674859628E+01   1.4690070829E+02  -6.2694546485E+01   2.0812007778E+02   1.2500000000E+02  0.  0
       25    1    1    2    0    0  -4.6674859628E+01  -1.4690070829E+02   1.7337025019E+02   2.6351585203E+02   1.2500000000E+02  0.  0
</event>
<event>
 4   0  0.3991300E-04  0.4096728E+03  0.7818609E-02  0.1040481E+00
       21   -1    0    0  502  501   0.0000000000E+00   0.0000000000E+00   1.4149542307E+02   1.4149542307E+02   0.0000000000E+00  0. -1
       21   -1    0    0  501  502   0.0000000000E+00   0.0000000000E+00  -2.9653214570E+02   2.9653214570E+02   0.0000000000E+00  0. -1
       25    1    1    2    0    0   3.6046421357E+00   1.3050914375E+02   2.5522472958E+01   1.8254321865E+02   1.2500000000E+02  0.  0
       25    1    1    2    0    0  -3.6046421357E+00  -1.3050914375E+02  -1.8055919559E+02   2.5548435013E+02   1.2500000000E+02  0.  0
</event>
<event>
 4   0  0.3991300E-04  0.3391905E+03  0.7818609E-02  0.1067141E+00
       21   -1    0    0  502  501   0.0000000000E+00   0.0000000000E+00   3.8928389662E+01   3.8928389662E+01   0.0000000000E+00  0. -1
       21   -1    0    0  501  502   0.0000000000E+00   0.0000000000E+00  -7.3885812990E+02   7.3885812990E+02   0.0000000000E+00  0.  1
       25    1    1    2    0    0  -1.0113800215E+02  -4.1344268234E+01  -4.2937629226E+02   4.6035556296E+02   1.2500000000E+02  0.  0
       25    1    1    2    0    0   1.0113800215E+02   4.1344268234E+01  -2.7055344798E+02   3.1743095660E+02   1.2500000000E+02  0.  0
</event>
<event>
 4   0  0.3991300E-04  0.6493748E+03  0.7818609E-02  0.9807953E-01
       21   -1    0    0  502  501   0.0000000000E+00   0.0000000000E+00   1.7376855787E+02   1.7376855787E+02   0.0000000000E+00  0.  1
       21   -1    0    0  501  502   0.0000000000E+00   0.0000000000E+00  -6.0668003036E+02   6.0668003036E+02   0.0000000000E+00  0.  1
       25    1    1    2    0    0  -2.2170577758E+02  -9.3210052752E+01  -1.6130209602E+00   2.7105196473E+02   1.2500000000E+02  0.  0
       25    1    1    2    0    0   2.2170577758E+02   9.3210052752E+01  -4.3129845153E+02   5.0939662350E+02   1.2500000000E+02  0.  0
</event>
<event>
 4   0  0.3991300E-04  0.4002821E+03  0.7818609E-02  0.1043682E+00
       21   -1    0    0  502  501   0.0000000000E+00   0.0000000000E+00   1.3449809894E+02   1.3449809894E+02   0.0000000000E+00  0. -1
       21   -1    0    0  501  502   0.0000000000E+00   0.0000000000E+00  -2.9782160871E+02   2.9782160871E+02   0.0000000000E+00  0. -1
       25    1    1    2    0    0   3.9022921421E+01   8.5624787195E+00  -2.4487017594E+02   2.7781739957E+02   1.2500000000E+02  0.  0
       25    1    1    2    0    0  -3.9022921421E+01  -8.5624787195E+00   8.1546666177E+01   1.5450230808E+02   1.2500000000E+02  0.  0
</event>
<event>
 4   0  0.3991300E-04  0.4318918E+03  0.7818609E-02  0.1033264E+00
       21   -1    0    0  502  501   0.0000000000E+00   0.0000000000E+00   3.9546338793E+01   3.9546338793E+01   0.0000000000E+00  0. -1
       21   -1    0    0  501  502   0.0000000000E+00   0.0000000000E+00  -1.1791895922E+03   1.1791895922E+03   0.0000000000E+00  0. -1
       25    1    1    2    0    0  -9.7374633508E+01  -1.5117721995E+01  -9.8163134445E+02   9.9445234233E+02   1.2500000000E+02  0.  0
       25    1    1    2    0    0   9.7374633508E+01   1.5117721995E+01  -1.5801190896E+02   2.2428358866E+02   1.2500000000E+02  0.  0
</event>
<event>
 4   0  0.3991300E-04  0.5160938E+03  0.7818609E-02  0.1009662E+00
       21   -1    0    0  502  501   0.0000000000E+00   0.0000000000E+00   5.7578265964E+02   5.7578265964E+02   0.0000000000E+00  0. -1
       21   -1    0    0  501  502   0.0000000000E+00   0.0000000000E+00  -1.1564817501E+02   1.1564817501E+02   0.0000000000E+00  0. -1
       25    1    1    2    0    0   1.6507881997E+02   8.3957244456E+01   5.7124799469E+01   2.3062540713E+02   1.2500000000E+02  0.  0
       25    1    1    2    0    0  -1.6507881997E+02  -8.3957244456E+01   4.0300968516E+02   4.6080542752E+02   1.2500000000E+02  0.  0
</event>
<event>
 4   0  0.3991300E-04  0.4763486E+03  0.7818609E-02  0.1020144E+00
       21   -1    0    0  502  501   0.0000000000E+00   0.0000000000E+00   1.2610163383E+03   1.2610163383E+03   0.0000000000E+00  0. -1
       21   -1    0    0  501  502   0.0000000000E+00   0.0000000000E+00  -4.4985133278E+01   4.4985133278E+01   0.0000000000E+00  0. -1
       25    1    1    2    0    0   1.0937369253E+02  -7.9627374700E+01   1.9403936028E+02   2.6754326147E+02   1.2500000000E+02  0.  0
       25    1    1    2    0    0  -1.0937369253E+02   7.9627374700E+01   1.0219918448E+03   1.0384582101E+03   1.2500000000E+02  0.  0
</event>
<event>
 4   0  0.3991300E-04  0.3730641E+03  0.7818609E-02  0.1053527E+00
       21   -1    0    0  502  501   0.0000000000E+00   0.0000000000E+00   3.9403036836E+02   3.9403036836E+02   0.0000000000E+00  0.  1
       21   -1    0    0  501  502   0.0000000000E+00   0.0000000000E+00  -8.8303370996E+01   8.8303370996E+01   0.0000000000E+00  0.  1
       25    1    1    2    0    0  -2.1068306470E+01   3.8613345157E+01  -1.6867653449E+01   1.3358286452E+02   1.2500000000E+02  0.  0
       25    1    1    2    0    0   2.1068306470E+01  -3.8613345157E+01   3.2259465081E+02   3.4875087483E+02   1.2500000000E+02  0.  0
</event>
<event>
 4   0  0.3991300E-04  0.4633928E+03  0.7818609E-02  0.1023802E+00
       21   -1    0    0  502  501   0.0000000000E+00   0.0000000000E+00   1.6939754432E+02   1.6939754432E+02   0.0000000000E+00  0. -1
       21   -1    0    0  501  502   0.0000000000E+00   0.0000000000E+00  -3.1690676874E+02   3.1690676874E+02   0.0000000000E+00  0. -1
       25    1    1    2    0    0   1.0922950575E+02   1.5658876904E+02  -1.1582537469E+02   2.5591335436E+02   1.2500000000E+02  0.  0
       25    1    1    2    0    0  -1.0922950575E+02  -1.5658876904E+02  -3.1683849731E+01   2.3039095870E+02   1.2500000000E+02  0.  0
</event>
<event>
 4   0  0.3991300E-04  0.4002007E+03  0.7818609E-02  0.1043710E+00
       21   -1    0    0  502  501   0.0000000000E+00   0.0000000000E+00   3.9608325284E+03   3.9608325284E+03   0.0000000000E+00  0. -1
       21   -1    0    0  501  502   0.0000000000E+00   0.0000000000E+00  -1.0109022652E+01   1.0109022652E+01   0.0000000000E+00  0. -1
       25    1    1    2    0    0   5.1621491759E+00  -1.2048849055E+02   2.9611797117E+03   2.9662694431E+03   1.2500000000E+02  0.  0
       25    1    1    2    0    0  -5.1621491759E+00   1.2048849055E+02   9.8954379402E+02   1.0046721079E+03   1.2500000000E+02  0.  0
</event>
<event>
 4   0  0.3991300E-04  0.4528727E+03  0.7818609E-02  0.1026869E+00
       21   -1    0    0  502  501   0.0000000000E+00   0.0000000000E+00   1.2007978258E+03   1.2007978258E+03   0.0000000000E+00  0. -1
       21   -1    0    0  501  502   0.0000000000E+00   0.0000000000E+00  -4.2699453747E+01   4.2699453747E+01   0.0000000000E+00  0. -1
       25    1    1    2    0    0  -3.4115477414E+01   1.0786904626E+02   1.6399903938E+02   2.3520263999E+02   1.2500000000E+02  0.  0
       25    1    1    2    0    0   3.4115477414E+01  -1.0786904626E+02   9.9409933269E+02   1.0082946396E+03   1.2500000000E+02  0.  0
</event>
<event>
 4   0  0.3991300E-04  0.4512552E+03  0.7818609E-02  0.1027348E+00
       21   -1    0    0  502  501   0.0000000000E+00   0.0000000000E+00   5.0260772161E+00   5.0260772161E+00   0.0000000000E+00  0.  1
       21   -1    0    0  501  502   0.0000000000E+00   0.0000000000E+00  -1.0128738208E+04   1.0128738208E+04   0.0000000000E+00  0.  1
       25    1    1    2    0    0   1.3919102250E+02  -1.2464603580E+02  -5.4950142162E+03   5.4996106236E+03   1.2500000000E+02  0.  0
       25    1    1    2    0    0  -1.3919102250E+02   1.2464603580E+02  -4.6286979144E+03   4.6341536615E+03   1.2500000000E+02  0.  0
</event>
<event>
 4   0  0.3991300E-04  0.6174749E+03  0.7818609E-02  0.9869800E-01
       21   -1    0    0  502  501   0.0000000000E+00   0.0000000000E+00   4.6901532603E+03   4.6901532603E+03   0.0000000000E+00  0. -1
       21   -1    0    0  501  502   0.0000000000E+00   0.0000000000E+00  -2.0323177165E+01   2.0323177165E+01   0.0000000000E+00  0. -1
       25    1    1    2    0    0   1.2955021273E+02   1.6252274794E+02   3.7922976948E+03   3.8000452244E+03   1.2500000000E+02  0.  0
       25    1    1    2    0    0  -1.2955021273E+02  -1.6252274794E+02   8.7753238837E+02   9.1043121313E+02   1.2500000000E+02  0.  0
</event>
<event>
 4   0  0.3991300E-04  0.3997275E+03  0.7818609E-02  0.1043874E+00
       21   -1    0    0  502  501   0.0000000000E+00   0.0000000000E+00   8.9738917971E+02   8.9738917971E+02   0.0000000000E+00  0.  1
       21   -1    0    0  501  502   0.0000000000E+00   0.0000000000E+00  -4.4513043090E+01   4.4513043090E+01   0.0000000000E+00  0.  1
       25    1    1    2    0    0  -1.2469188727E+02   1.1339118195E+01   6.4551475070E+02   6.6932125002E+02   1.2500000000E+02  0.  0
       25    1    1    2    0    0   1.2469188727E+02  -1.1339118195E+01   2.0736138591E+02   2.7258097278E+02   1.2500000000E+02  0.  0
</event>
<event>
 4   0  0.3991300E-04  0.4161010E+03  0.7818609E-02  0.1038343E+00
       21   -1    0    0  502  501   0.0000000000E+00   0.0000000000E+00   3.7411615850E+01   3.7411615850E+01   0.0000000000E+00  0.  1
       21   -1    0    0  501  502   0.0000000000E+00   0.0000000000E+00  -1.1569940934E+03   1.1569940934E+03   0.0000000000E+00  0.  1
       25    1    1    2    0    0  -1.3172756251E+02  -1.0108743769E+02  -5.8690127497E+02   6.2261458973E+02   1.2500000000E+02  0.  0
       25    1    1    2    0    0   1.3172756251E+02   1.0108743769E+02  -5.3268120263E+02   5.7179111957E+02   1.2500000000E+02  0.  0
</event>
<event>
 4   0  0.3991300E-04  0.5237359E+03  0.7818609E-02  0.1007763E+00
       21   -1    0    0  502  501   0.0000000000E+00   0.0000000000E+00   1.7924590173E+03   1.7924590173E+03   0.0000000000E+00  0. -1
       21   -1    0    0  501  502   0.0000000000E+00   0.0000000000E+00  -3.8257407604E+01   3.8257407604E+01   0.0000000000E+00  0. -1
       25    1    1    2    0    0  -4.7623717404E+01   2.2459037604E+02   9.3136320397E+02   9.6735271394E+02   1.2500000000E+02  0.  0
       25    1    1    2    0    0   4.7623717404E+01  -2.2459037604E+02   8.2283840577E+02   8.6336371100E+02   1.2500000000E+02  0.  0
</event>
<event>
 4   0  0.3991300E-04  0.4969373E+03  0.7818609E-02  0.1014581E+00
       21   -1    0    0  502  501   0.0000000000E+00   0.0000000000E+00   2.2700233036E+01   2.2700233036E+01   0.0000000000E+00  0. -1
       21   -1    0    0  501  502   0.0000000000E+00   0.0000000000E+00  -2.7196490409E+03   2.7196490409E+03   0.0000000000E+00  0. -1
       25    1    1    2    0    0  -8.3614553657E+01  -4.1883124071E+01  -2.4152177334E+03   2.4202576907E+03   1.2500000000E+02  0.  0
       25    1    1    2    0    0   8.3614553657E+01   4.1883124071E+01  -2.8173107437E+02   3.2209158314E+02   1.2500000000E+02  0.  0
</event>
<event>
 4   0  0.3991300E-04  0.3707623E+03  0.7818609E-02  0.1054402E+00
       21   -1    0    0  502  501   0.0000000000E+00   0.0000000000E+00   8.8115825310E+01   8.8115825310E+01   0.0000000000E+00  0. -1
       21   -1    0    0  501  502   0.0000000000E+00   0.0000000000E+00  -3.9001126697E+02   3.9001126697E+02   0.0000000000E+00  0. -1
       25    1    1    2    0    0   1.0750336886E+02   8.4508344723E+01  -1.4253772757E+02   2.3375337094E+02   1.2500000000E+02  0.  0
       25    1    1    2    0    0  -1.0750336886E+02  -8.4508344723E+01  -1.5935771409E+02   2.4437372134E+02   1.2500000000E+02  0.  0
</event>
<event>
 4   0  0.3991300E-04  0.4318510E+03  0.7818609E-02  0.1033277E+00
       21   -1    0    0  502  501   0.0000000000E+00   0.0000000000E+00   1.0602508563E+03   1.0602508563E+03   0.0000000000E+00  0.  1
       21   -1    0    0  501  502   0.0000000000E+00   0.0000000000E+00  -4.3974335073E+01   4.3974335073E+01   0.0000000000E+00  0.  1
       25    1    1    2    0    0  -1.3117048270E+02   1.1184260045E+02   5.9977459205E+02   6.3645033120E+02   1.2500000000E+02  0.  0
       25    1    1    2    0    0   1.3117048270E+02  -1.1184260045E+02   4.1650192918E+02   4.6777486018E+02   1.2500000000E+02  0.  0
</event>
<event>
 4   0  0.3991300E-04  0.6403831E+03  0.7818609E-02  0.9824994E-01
       21   -1    0    0  502  501   0.0000000000E+00   0.0000000000E+00   2.9642256515E+02   2.9642256515E+02   0.0000000000E+00  0. -1
       21   -1    0    0  501  502   0.0000000000E+00   0.0000000000E+00  -3.4586646669E+02   3.4586646669E+02   0.0000000000E+00  0.  1
       25    1    1    2    0    0   2.4045048659E+02  -1.7047292046E+02  -2.9226659306E+01   3.2149129184E+02   1.2500000000E+02  0.  0
       25    1    1    2    0    0  -2.4045048659E+02   1.7047292046E+02  -2.0217242239E+01   3.2079774001E+02   1.2500000000E+02  0.  0
</event>
<event>
 4   0  0.3991300E-04  0.4433499E+03  0.7818609E-02  0.1029724E+00
       21   -1    0    0  502  501   0.0000000000E+00   0.0000000000E+00   1.7507851114E+03   1.7507851114E+03   0.0000000000E+00  0.  1
       21   -1    0    0  501  502   0.0000000000E+00   0.0000000000E+00  -2.8067279600E+01   2.8067279600E+01   0.0000000000E+00  0.  1
       25    1    1    2    0    0   5.3219790054E+01  -4.2214672478E+01   1.7926387959E+02   2.2885576932E+02   1.2500000000E+02  0.  0
       25    1    1    2    0    0  -5.3219790054E+01   4.2214672478E+01   1.5434539522E+03   1.5499966216E+03   1.2500000000E+02  0.  0
</event>
<event>
 4   0  0.3991300E-04  0.5761994E+03  0.7818609E-02  0.9956053E-01
       21   -1    0    0  502  501   0.0000000000E+00   0.0000000000E+00   7.4459227306E+01   7.4459227306E+01   0.0000000000E+00  0. -1
       21   -1    0    0  501  502   0.0000000000E+00   0.0000000000E+00  -1.1147235130E+03   1.1147235130E+03   0.0000000000E+00  0. -1
       25    1    1    2    0    0   6.7874352156E+01   2.3402890667E+02  -3.3553685738E+02   4.3311250213E+02   1.2500000000E+02  0.  0
       25    1    1    2    0    0  -6.7874352156E+01  -2.3402890667E+02  -7.0472742827E+02   7.5607023814E+02   1.2500000000E+02  0.  0
</event>
<event>
 4   0  0.3991300E-04  0.9390573E+03  0.7818609E-02  0.9378033E-01
       21   -1    0    0  502  501   0.0000000000E+00   0.0000000000E+00   5.8241273631E+03   5.8241273631E+03   0.0000000000E+00  0. -1
       21   -1    0    0  501  502   0.0000000000E+00   0.0000000000E+00  -3.7852396066E+01   3.7852396066E+01   0.0000000000E+00  0. -1
       25    1    1    2    0    0  -8.0807887287E+01  -2.9423090907E+02   4.9797314175E+03   4.9906364056E+03   1.2500000000E+02  0.  0
       25    1    1    2    0    0   8.0807887287E+01   2.9423090907E+02   8.0654354954E+02   8.7134335356E+02   1.2500000000E+02  0.  0
</event>
<event>
 4   0  0.3991300E-04  0.5881914E+03  0.7818609E-02  0.9930213E-01
       21   -1    0    0  502  501   0.0000000000E+00   0.0000000000E+00   2.9545068639E+02   2.9545068639E+02   0.0000000000E+00  0. -1
       21   -1    0    0  501  502   0.0000000000E+00   0.0000000000E+00  -2.9274690142E+02   2.9274690142E+02   0.0000000000E+00  0. -1
       25    1    1    2    0    0   1.5443982992E+02  -1.0658136079E+02   1.9018191884E+02   2.9496679438E+02   1.2500000000E+02  0.  0
       25    1    1    2    0    0  -1.5443982992E+02   1.0658136079E+02  -1.8747813387E+02   2.9323079342E+02   1.2500000000E+02  0.  0
</event>
<event>
 4   0  0.3991300E-04  0.8585441E+03  0.7818609E-02  0.9478941E-01
       21   -1    0    0  502  501   0.0000000000E+00   0.0000000000E+00   1.0260017562E+02   1.0260017562E+02   0.0000000000E+00  0. -1
       21   -1    0    0  501  502   0.0000000000E+00   0.0000000000E+00  -1.7960446666E+03   1.7960446666E+03   0.0000000000E+00  0. -1
       25    1    1    2    0    0   2.4759931372E+02  -2.5034695394E+02  -3.7931931332E+02   5.3243512183E+02   1.2500000000E+02  0.  0
       25    1    1    2    0    0  -2.4759931372E+02   2.5034695394E+02  -1.3141251776E+03   1.3662097203E+03   1.2500000000E+02  0.  0
</event>
<event>
 4   0  0.3991300E-04  0.9147738E+03  0.7818609E-02  0.9407300E-01
       21   -1    0    0  502  501   0.0000000000E+00   0.0000000000E+00   7.3980908058E+01   7.3980908058E+01   0.0000000000E+00  0.  1
       21   -1    0    0  501  502   0.0000000000E+00   0.0000000000E+00  -2.8277938312E+03   2.8277938312E+03   0.0000000000E+00  0.  1
       25    1    1    2    0    0  -9.2260492743E+01   2.3647000532E+02  -2.3693671182E+02   3.6904480398E+02   1.2500000000E+02  0.  0
       25    1    1    2    0    0   9.2260492743E+01  -2.3647000532E+02  -2.5168762113E+03   2.5327299352E+03   1.2500000000E+02  0.  0
</event>
<event>
 4   0  0.3991300E-04  0.3425258E+03  0.7818609E-02  0.1065725E+00
       21   -1    0    0  502  501   0.0000000000E+00   0.0000000000E+00   1.4125299189E+02   1.4125299189E+02   0.0000000000E+00  0. -1
       21   -1    0    0  501  502   0.0000000000E+00   0.0000000000E+00  -2.0764855509E+02   2.0764855509E+02   0.0000000000E+00  0. -1
       25    1    1    2    0    0  -8.6364695356E+01  -5.6465539984E+01   2.3137756643E+01   1.6373018534E+02   1.2500000000E+02  0.  0
       25    1    1    2    0    0   8.6364695356E+01   5.6465539984E+01  -8.9533319840E+01   1.8517136164E+02   1.2500000000E+02  0.  0
</event>
<event>
 4   0  0.3991300E-04  0.5911329E+03  0.7818609E-02  0.9923975E-01
       21   -1    0    0  502  501   0.0000000000E+00   0.0000000000E+00   5.9624605024E+02   5.9624605024E+02   0.0000000000E+00  0. -1
       21   -1    0    0  501  502   0.0000000000E+00   0.0000000000E+00  -1.4651592053E+02   1.4651592053E+02   0.0000000000E+00  0. -1
       25    1    1    2    0    0  -2.4185418245E+02  -1.1447963415E+02   2.1023841397E+02   3.6252478938E+02   1.2500000000E+02  0.  0
       25    1    1    2    0    0   2.4185418245E+02   1.1447963415E+02   2.3949171575E+02   3.8023718140E+02   1.2500000000E+02  0.  0
</event>
<event>
 4   0  0.3991300E-04  0.3886953E+03  0.7818609E-02  0.1047766E+00
       21   -1    0    0  502  501   0.0000000000E+00   0.0000000000E+00   2.1455340430E+02   2.1455340430E+02   0.0000000000E+00  0. -1
       21   -1    0    0  501  502   0.0000000000E+00   0.0000000000E+00  -1.7604482437E+02   1.7604482437E+02   0.0000000000E+00  0. -1
       25    1    1    2    0    0  -9.4525045424E+01  -7.0585855441E+01   1.1041039063E+02   2.0428607774E+02   1.2500000000E+02  0.  0
       25    1    1    2    0    0   9.4525045424E+01   7.0585855441E+01  -7.1901810699E+01   1.8631215093E+02   1.2500000000E+02  0.  0
</event>
<event>
 4   0  0.3991300E-04  0.8533907E+03  0.7818609E-02  0.9485797E-01
       21   -1    0    0  502  501   0.0000000000E+00   0.0000000000E+00   2.4367438279E+01   2.4367438279E+01   0.0000000000E+00  0. -1
       21   -1    0    0  501  502   0.0000000000E+00   0.0000000000E+00  -7.4718122253E+03   7.4718122253E+03   0.0000000000E+00  0. -1
       25    1    1    2    0    0  -1.7197939313E+02  -3.1431014663E+02  -5.4377529330E+03   5.4509769529E+03   1.2500000000E+02  0.  0
       25    1    1    2    0    0   1.7197939313E+02   3.1431014663E+02  -2.0096918540E+03   2.0452027107E+03   1.2500000000E+02  0.  0
</event>
<event>
 4   0  0.3991300E-04  0.3757774E+03  0.7818609E-02  0.1052506E+00
       21   -1    0    0  502  501   0.0000000000E+00   0.0000000000E+00   9.9815363461E+00   9.9815363461E+00   0.0000000000E+00  0.  1
       21   -1    0    0  501  502   0.0000000000E+00   0.0000000000E+00  -3.5367470253E+03   3.5367470253E+03   0.0000000000E+00  0.  1
       25    1    1    2    0    0  -1.1778780569E+02  -7.5669868853E+01  -1.6804147736E+03   1.6908633024E+03   1.2500000000E+02  0.  0
       25    1    1    2    0    0   1.1778780569E+02   7.5669868853E+01  -1.8463507154E+03   1.8558652592E+03   1.2500000000E+02  0.  0
</event>
<event>
 4   0  0.3991300E-04  0.4241406E+03  0.7818609E-02  0.1035727E+00
       21   -1    0    0  502  501   0.0000000000E+00   0.0000000000E+00   5.3783815736E+00   5.3783815736E+00   0.0000000000E+00  0. -1
       21   -1    0    0  501  502   0.0000000000E+00   0.0000000000E+00  -8.3619582464E+03   8.3619582464E+03   0.0000000000E+00  0. -1
       25    1    1    2    0    0   2.5403957238E+01   9.0079256349E+01  -1.3475703505E+03   1.3565878088E+03   1.2500000000E+02  0.  0
       25    1    1    2    0    0  -2.5403957238E+01  -9.0079256349E+01  -7.0090095144E+03   7.0107488192E+03   1.2500000000E+02  0.  0
</event>
<event>
 4   0  0.3991300E-04  0.1040195E+04  0.7818609E-02  0.9265526E-01
       21   -1    0    0  502  501   0.0000000000E+00   0.0000000000E+00   1.1466093398E+04   1.1466093398E+04   0.0000000000E+00  0. -1
       21   -1    0    0  501  502   0.0000000000E+00   0.0000000000E+00  -2.3591400592E+01   2.3591400592E+01   0.0000000000E+00  0. -1
       25    1    1    2    0    0  -4.8832311265E+02   1.0162146556E+02   4.8592740055E+03   4.8864051454E+03   1.2500000000E+02  0.  0
       25    1    1    2    0    0   4.8832311265E+02  -1.0162146556E+02   6.5832279918E+03   6.6032796531E+03   1.2500000000E+02  0.  0
</event>
<event>
 4   0  0.3991300E-04  0.4809099E+03  0.7818609E-02  0.1018885E+00
       21   -1    0    0  502  501   0.0000000000E+00   0.0000000000E+00   1.3714433276E+02   1.3714433276E+02   0.0000000000E+00  0. -1
       21   -1    0    0  501  502   0.0000000000E+00   0.0000000000E+00  -4.2158932945E+02   4.2158932945E+02   0.0000000000E+00  0. -1
       25    1    1    2    0    0  -5.8762970406E+01  -1.6168819832E+02  -2.7262383129E+02   3.4575267686E+02   1.2500000000E+02  0.  0
       25    1    1    2    0    0   5.8762970406E+01   1.6168819832E+02  -1.1821165398E+01   2.1298098535E+02   1.2500000000E+02  0.  0
</event>
<event>
 4   0  0.3991300E-04  0.3989868E+03  0.7818609E-02  0.1044131E+00
       21   -1    0    0  502  501   0.0000000000E+00   0.0000000000E+00   5.0769804627E+01   5.0769804627E+01   0.0000000000E+00  0.  1
       21   -1    0    0  501  502   0.0000000000E+00   0.0000000000E+00  -7.8388374250E+02   7.8388374250E+02   0.0000000000E+00  0.  1
       25    1    1    2    0    0  -1.2098866336E+02   5.5820635596E+01  -5.3415228981E+02   5.6453331942E+02   1.2500000000E+02  0.  0
       25    1    1    2    0    0   1.2098866336E+02  -5.5820635596E+01  -1.9896164806E+02   2.7012022771E+02   1.2500000000E+02  0.  0
</event>
<event>
 4   0  0.3991300E-04  0.4729741E+03  0.7818609E-02  0.1021084E+00
       21   -1    0    0  502  501   0.0000000000E+00   0.0000000000E+00   1.1533881526E+03   1.1533881526E+03   0.0000000000E+00  0.  1
       21   -1    0    0  501  502   0.0000000000E+00   0.0000000000E+00  -4.8488561528E+01   4.8488561528E+01   0.0000000000E+00  0.  1
       25    1    1    2    0    0   5.3686506946E+01   1.4221461664E+02   2.1924621704E+02   2.9462033518E+02   1.2500000000E+02  0.  0
       25    1    1    2    0    0  -5.3686506946E+01  -1.4221461664E+02   8.8565337407E+02   9.0725637899E+02   1.2500000000E+02  0.  0
</event>
<event>
 4   0  0.3991300E-04  0.1646699E+04  0.7818609E-02  0.8792362E-01
       21   -1    0    0  502  501   0.0000000000E+00   0.0000000000E+00   5.4083841920E+03   5.4083841920E+03   0.0000000000E+00  0. -1
       21   -1    0    0  501  502   0.0000000000E+00   0.0000000000E+00  -1.2534329024E+02   1.2534329024E+02   0.0000000000E+00  0. -1
       25    1    1    2    0    0  -5.5240600441E+02  -5.1776620787E+02   3.6443087933E+03   3.7242241904E+03   1.2500000000E+02  0.  0
       25    1    1    2    0    0   5.5240600441E+02   5.1776620787E+02   1.6387321084E+03   1.8095032918E+03   1.2500000000E+02  0.  0
</event>
<event>
 4   0  0.3991300E-04  0.4352512E+03  0.7818609E-02  0.1032214E+00
       21   -1    0    0  502  501   0.0000000000E+00   0.0000000000E+00   1.8998751775E+01   1.8998751775E+01   0.0000000000E+00  0.  1
       21   -1    0    0  501  502   0.0000000000E+00   0.0000000000E+00  -2.4928430183E+03   2.4928430183E+03   0.0000000000E+00  0.  1
       25    1    1    2    0    0   8.7941704786E+00  -1.1148064011E+02  -4.3662898760E+02   4.6773405197E+02   1.2500000000E+02  0.  0
       25    1    1    2    0    0  -8.7941704786E+00   1.1148064011E+02  -2.0372152789E+03   2.0441077181E+03   1.2500000000E+02  0.  0
</event>
<event>
 4   0  0.3991300E-04  0.4801252E+03  0.7818609E-02  0.1019101E+00
       21   -1    0    0  502  501   0.0000000000E+00   0.0000000000E+00   5.3499908607E+01   5.3499908607E+01   0.0000000000E+00  0. -1
       21   -1    0    0  501  502   0.0000000000E+00   0.0000000000E+00  -1.0771989062E+03   1.0771989062E+03   0.0000000000E+00  0. -1
       25    1    1    2    0    0   8.6935309210E+01  -9.6293407220E+01  -1.3818991236E+02   2.2704981863E+02   1.2500000000E+02  0.  0
       25    1    1    2    0    0  -8.6935309210E+01   9.6293407220E+01  -8.8550908524E+02   9.0364899618E+02   1.2500000000E+02  0.  0
</event>
<event>
 4   0  0.3991300E-04  0.4466810E+03  0.7818609E-02  0.1028716E+00
       21   -1    0    0  502  501   0.0000000000E+00   0.0000000000E+00   1.2422383083E+03   1.2422383083E+03   0.0000000000E+00  0.  1
       21   -1    0    0  501  502   0.0000000000E+00   0.0000000000E+00  -4.0154112797E+01   4.0154112797E+01   0.0000000000E+00  0.  1
       25    1    1    2    0    0  -1.0220167026E+02   1.5338497805E+02   5.5267349673E+02   5.9585663282E+02   1.2500000000E+02  0.  0
       25    1    1    2    0    0   1.0220167026E+02  -1.5338497805E+02   6.4941069878E+02   6.8653578828E+02   1.2500000000E+02  0.  0
</event>
<event>
 4   0  0.3991300E-04  0.4489425E+03  0.7818609E-02  0.1028038E+00
       21   -1    0    0  502  501   0.0000000000E+00   0.0000000000E+00   4.2010759751E+02   4.2010759751E+02   0.0000000000E+00  0.  1
       21   -1    0    0  501  502   0.0000000000E+00   0.0000000000E+00  -1.1993914497E+02   1.1993914497E+02   0.0000000000E+00  0.  1
       25    1    1    2    0    0  -1.7293046978E+02  -4.6267648281E+01   8.7385065898E+01   2.3517396199E+02   1.2500000000E+02  0.  0
       25    1    1    2    0    0   1.7293046978E+02   4.6267648281E+01   2.1278338664E+02   3.0487278049E+02   1.2500000000E+02  0.  0
</event>
<event>
 4   0  0.3991300E-04  0.4726436E+03  0.7818609E-02  0.1021177E+00
       21   -1    0    0  502  501   0.0000000000E+00   0.0000000000E+00   1.1456534228E+02   1.1456534228E+02   0.0000000000E+00  0.  1
       21   -1    0    0  501  502   0.0000000000E+00   0.0000000000E+00  -4.8747730852E+02   4.8747730852E+02   0.0000000000E+00  0.  1
       25    1    1    2    0    0   1.3794482795E+02   1.6266665657E+01  -3.7073426463E+02   4.1516535855E+02   1.2500000000E+02  0.  0
       25    1    1    2    0    0  -1.3794482795E+02  -1.6266665657E+01  -2.1777016075E+00   1.8687729224E+02   1.2500000000E+02  0.  0
</event>
<event>
 4   0  0.3991300E-04  0.4300275E+03  0.7818609E-02  0.1033851E+00
       21   -1    0    0  502  501   0.0000000000E+00   0.0000000000E+00   4.7780049827E+02   4.7780049827E+02   0.0000000000E+00  0.  1
       21   -1    0    0  501  502   0.0000000000E+00   0.0000000000E+00  -9.6757783307E+01   9.6757783307E+01   0.0000000000E+00  0.  1
       25    1    1    2    0    0  -4.6972670945E+01   1.6783764102E+02   1.7025794292E+02   2.7384059722E+02   1.2500000000E+02  0.  0
       25    1    1    2    0    0   4.6972670945E+01  -1.6783764102E+02   2.1078477205E+02   3.0071768436E+02   1.2500000000E+02  0.  0
</event>
<event>
 4   0  0.3991300E-04  0.4510979E+03  0.7818609E-02  0.1027395E+00
       21   -1    0    0  502  501   0.0000000000E+00   0.0000000000E+00   4.7085028636E+02   4.7085028636E+02   0.0000000000E+00  0.  1
       21   -1    0    0  501  502   0.0000000000E+00   0.0000000000E+00  -1.0804354280E+02   1.0804354280E+02   0.0000000000E+00  0.  1
       25    1    1    2    0    0  -4.5039615219E+00   8.0434123508E+00   4.2204294501E+02   4.4026154680E+02   1.2500000000E+02  0.  0
       25    1    1    2    0    0   4.5039615219E+00  -8.0434123508E+00  -5.9236201452E+01   1.3863228237E+02   1.2500000000E+02  0.  0
</event>
<event>
 4   0  0.3991300E-04  0.4809602E+03  0.7818609E-02  0.1018872E+00
       21   -1    0    0  502  501   0.0000000000E+00   0.0000000000E+00   4.5484214589E+02   4.5484214589E+02   0.0000000000E+00  0. -1
       21   -1    0    0  501  502   0.0000000000E+00   0.0000000000E+00  -1.2714449758E+02   1.2714449758E+02   0.0000000000E+00  0. -1
       25    1    1    2    0    0  -3.3948218048E+01   1.5248441028E+02   2.4001002259E+00   2.0008682457E+02   1.2500000000E+02  0.  0
       25    1    1    2    0    0   3.3948218048E+01  -1.5248441028E+02   3.2529754809E+02   3.8189981890E+02   1.2500000000E+02  0.  0
</event>
<event>
 4   0  0.3991300E-04  0.8338638E+03  0.7818609E-02  0.9512254E-01
       21   -1    0    0  502  501   0.0000000000E+00   0.0000000000E+00   1.0003705002E+03   1.0003705002E+03   0.0000000000E+00  0. -1
       21   -1    0    0  501  502   0.0000000000E+00   0.0000000000E+00  -1.7376783417E+02   1.7376783417E+02   0.0000000000E+00  0. -1
       25    1    1    2    0    0  -3.2196657921E+02  -6.6268743295E+01   9.7965427977E+01   3.6507019810E+02   1.2500000000E+02  0.  0
       25    1    1    2    0    0   3.2196657921E+02   6.6268743295E+01   7.2863723809E+02   8.0906813632E+02   1.2500000000E+02  0.  0
</event>
<event>
 4   0  0.3991300E-04  0.6987512E+03  0.7818609E-02  0.9719370E-01
       21   -1    0    0  502  501   0.0000000000E+00   0.0000000000E+00   1.0536498378E+02   1.0536498378E+02   0.0000000000E+00  0. -1
       21   -1    0    0  501  502   0.0000000000E+00   0.0000000000E+00  -1.1584809452E+03   1.1584809452E+03   0.0000000000E+00  0. -1
       25    1    1    2    0    0  -1.5535144803E+02  -1.0331432843E+00  -1.0454534309E+03   1.0642993075E+03   1.2500000000E+02  0.  0
       25    1    1    2    0    0   1.5535144803E+02   1.0331432843E+00  -7.6625305806E+00   1.9954662153E+02   1.2500000000E+02  0.  0
</event>
<event>
 4   0  0.3991300E-04  0.4240146E+03  0.7818609E-02  0.1035768E+00
       21   -1    0    0  502  501   0.0000000000E+00   0.0000000000E+00   6.2647740880E+02   6.2647740880E+02   0.0000000000E+00  0. -1
       21   -1    0    0  501  502   0.0000000000E+00   0.0000000000E+00  -7.1745766396E+01   7.1745766396E+01   0.0000000000E+00  0. -1
       25    1    1    2    0    0   2.6117459506E+01   1.5572885926E+02   3.8645246830E+02   4.3577988658E+02   1.2500000000E+02  0.  0
       25    1    1    2    0    0  -2.6117459506E+01  -1.5572885926E+02   1.6827917411E+02   2.6244328861E+02   1.2500000000E+02  0.  0
</event>
<event>
 4   0  0.3991300E-04  0.4710372E+03  0.7818609E-02  0.1021628E+00
       21   -1    0    0  502  501   0.0000000000E+00   0.0000000000E+00   3.6695270884E+02   3.6695270884E+02   0.0000000000E+00  0.  1
       21   -1    0    0  501  502   0.0000000000E+00   0.0000000000E+00  -1.5116118096E+02   1.5116118096E+02   0.0000000000E+00  0.  1
       25    1    1    2    0    0  -1.2141048900E+02   1.1752983408E+02  -8.9792199919E+00   2.1037916990E+02   1.2500000000E+02  0.  0
       25    1    1    2    0    0   1.2141048900E+02  -1.1752983408E+02   2.2477074787E+02   3.0773471990E+02   1.2500000000E+02  0.  0
</event>
<event>
 4   0  0.3991300E-04  0.9476147E+03  0.7818609E-02  0.9367943E-01
       21   -1    0    0  502  501   0.0000000000E+00   0.0000000000E+00   1.8037935309E+03   1.8037935309E+03   0.0000000000E+00  0.  1
       21   -1    0    0  501  502   0.0000000000E+00   0.0000000000E+00  -1.2445625921E+02   1.2445625921E+02   0.0000000000E+00  0.  1
       25    1    1    2    0    0   3.2666212472E+01  -1.5641958153E+02   1.7109396991E+03   1.7229259476E+03   1.2500000000E+02  0.  0
       25    1    1    2    0    0  -3.2666212472E+01   1.5641958153E+02  -3.1602427347E+01   2.0532384259E+02   1.2500000000E+02  0.  0
</event>
<event>
 4   0  0.3991300E-04  0.5021334E+03  0.7818609E-02  0.1013224E+00
       21   -1    0    0  502  501   0.0000000000E+00   0.0000000000E+00   1.4763184251E+03   1.4763184251E+03   0.0000000000E+00  0.  1
       21   -1    0    0  501  502   0.0000000000E+00   0.0000000000E+00  -4.2697077597E+01   4.2697077597E+01   0.0000000000E+00  0.  1
       25    1    1    2    0    0  -1.8369163611E+02   6.0454646704E+00   1.0699906734E+03   1.0928331099E+03   1.2500000000E+02  0.  0
       25    1    1    2    0    0   1.8369163611E+02  -6.0454646704E+00   3.6363067407E+02   4.2618239282E+02   1.2500000000E+02  0.  0
</event>
<event>
 4   0  0.3991300E-04  0.6176346E+03  0.7818609E-02  0.9869481E-01
       21   -1    0    0  502  501   0.0000000000E+00   0.0000000000E+00   8.4366494105E+01   8.4366494105E+01   0.0000000000E+00  0.  1
       21   -1    0    0  501  502   0.0000000000E+00   0.0000000000E+00  -1.1304028664E+03   1.1304028664E+03   0.0000000000E+00  0.  1
       25    1    1    2    0    0   1.1794051316E+02  -2.5637652437E+02  -5.4309889981E+02   6.2467615760E+02   1.2500000000E+02  0.  0
       25    1    1    2    0    0  -1.1794051316E+02   2.5637652437E+02  -5.0293747245E+02   5.9009320288E+02   1.2500000000E+02  0.  0
</event>
<event>
 4   0  0.3991300E-04  0.6561914E+03  0.7818609E-02  0.9795230E-01
       21   -1    0    0  502  501   0.0000000000E+00   0.0000000000E+00   1.4724745974E+03   1.4724745974E+03   0.0000000000E+00  0.  1
       21   -1    0    0  501  502   0.0000000000E+00   0.0000000000E+00  -7.3106052063E+01   7.3106052063E+01   0.0000000000E+00  0.  1
       25    1    1    2    0    0   2.2543028807E+02  -1.5699964036E+02   1.0027340211E+03   1.0471715327E+03   1.2500000000E+02  0.  0
       25    1    1    2    0    0  -2.2543028807E+02   1.5699964036E+02   3.9663452428E+02   4.9840911680E+02   1.2500000000E+02  0.  0
</event>
<event>
 4   0  0.3991300E-04  0.5571750E+03  0.7818609E-02  0.9998467E-01
       21   -1    0    0  502  501   0.0000000000E+00   0.0000000000E+00   2.1731675579E+03   2.1731675579E+03   0.0000000000E+00  0. -1
       21   -1    0    0  501  502   0.0000000000E+00   0.0000000000E+00  -3.5713308420E+01   3.5713308420E+01   0.0000000000E+00  0. -1
       25    1    1    2    0    0   1.6025220687E+02  -6.1186306536E+01   1.7841002915E+03   1.7966812138E+03   1.2500000000E+02  0.  0
       25    1    1    2    0    0  -1.6025220687E+02   6.1186306536E+01   3.5335395801E+02   4.1219965254E+02   1.2500000000E+02  0.  0
</event>
<event>
 4   0  0.3991300E-04  0.4176809E+03  0.7818609E-02  0.1037824E+00
       21   -1    0    0  502  501   0.0000000000E+00   0.0000000000E+00   2.9045151041E+03   2.9045151041E+03   0.0000000000E+00  0.  1
       21   -1    0    0  501  502   0.0000000000E+00   0.0000000000E+00  -1.5016043756E+01   1.5016043756E+01   0.0000000000E+00  0.  1
       25    1    1    2    0    0   9.2252285421E+01   1.0827555139E+02   8.2919526637E+02   8.5054327871E+02   1.2500000000E+02  0.  0
       25    1    1    2    0    0  -9.2252285421E+01  -1.0827555139E+02   2.0603037939E+03   2.0689878691E+03   1.2500000000E+02  0.  0
</event>
<event>
 4   0  0.3991300E-04  0.3542944E+03  0.7818609E-02  0.1060866E+00
       21   -1    0    0  502  501   0.0000000000E+00   0.0000000000E+00   1.6088845973E+01   1.6088845973E+01   0.0000000000E+00  0.  1
       21   -1    0    0  501  502   0.0000000000E+00   0.0000000000E+00  -1.9504899678E+03   1.9504899678E+03   0.0000000000E+00  0.  1
       25    1    1    2    0    0  -2.1422618956E+01  -1.2231757579E+02  -1.0688880560E+03   1.0833130638E+03   1.2500000000E+02  0.  0
       25    1    1    2    0    0   2.1422618956E+01   1.2231757579E+02  -8.6551306586E+02   8.8326575000E+02   1.2500000000E+02  0.  0
</event>
<event>
 4   0  0.3991300E-04  0.3432381E+03  0.7818609E-02  0.1065425E+00
       21   -1    0    0  502  501   0.0000000000E+00   0.0000000000E+00   1.9172666455E+01   1.9172666455E+01   0.0000000000E+00  0. -1
       21   -1    0    0  501  502   0.0000000000E+00   0.0000000000E+00  -1.5362026380E+03   1.5362026380E+03   0.0000000000E+00  0. -1
       25    1    1    2    0    0  -9.6307315500E+01   5.9271935552E+01  -9.0463941605E+02   9.2020961440E+02   1.2500000000E+02  0.  0
       25    1    1    2    0    0   9.6307315500E+01  -5.9271935552E+01  -6.1239055550E+02   6.3516569006E+02   1.2500000000E+02  0.  0
</event>
<event>
 4   0  0.3991300E-04  0.4076698E+03  0.7818609E-02  0.1041156E+00
       21   -1    0    0  502  501   0.0000000000E+00   0.0000000000E+00   1.7760985499E+03   1.7760985499E+03   0.0000000000E+00  0. -1
       21   -1    0    0  501  502   0.0000000000E+00   0.0000000000E+00  -2.3393218492E+01   2.3393218492E+01   0.0000000000E+00  0. -1
       25    1    1    2    0    0   5.2708852945E+01  -6.4677051711E+01   2.6851577542E+02   3.0771263517E+02   1.2500000000E+02  0.  0
       25    1    1    2    0    0  -5.2708852945E+01   6.4677051711E+01   1.4841895560E+03   1.4917791332E+03   1.2500000000E+02  0.  0
</event>
<event>
 4   0  0.3991300E-04  0.5197850E+03  0.7818609E-02  0.1008740E+00
       21   -1    0    0  502  501   0.0000000000E+00   0.0000000000E+00   8.4015558336E+00   8.4015558336E+00   0.0000000000E+00  0.  1
       21   -1    0    0  501  502   0.0000000000E+00   0.0000000000E+00  -8.0394765722E+03   8.0394765722E+03   0.0000000000E+00  0.  1
       25    1    1    2    0    0  -1.0392912886E+02   8.1101523275E+01  -1.1379981638E+03   1.1524077151E+03   1.2500000000E+02  0.  0
       25    1    1    2    0    0   1.0392912886E+02  -8.1101523275E+01  -6.8930768525E+03   6.8954704129E+03   1.2500000000E+02  0.  0
</event>
<event>
 4   0  0.3991300E-04  0.2828619E+03  0.7818609E-02  0.1094136E+00
       21   -1    0    0  502  501   0.0000000000E+00   0.0000000000E+00   1.4351989544E+02   1.4351989544E+02   0.0000000000E+00  0. -1
       21   -1    0    0  501  502   0.0000000000E+00   0.0000000000E+00  -1.3937241235E+02   1.3937241235E+02   0.0000000000E+00  0. -1
       25    1    1    2    0    0   2.8064572988E+01   4.3462263263E+00  -5.7692234427E+01   1.4056992514E+02   1.2500000000E+02  0.  0
       25    1    1    2    0    0  -2.8064572988E+01  -4.3462263263E+00   6.1839717519E+01   1.4232238265E+02   1.2500000000E+02  0.  0
</event>
<event>
 4   0  0.3991300E-04  0.4098135E+03  0.7818609E-02  0.1040434E+00
       21   -1    0    0  502  501   0.0000000000E+00   0.0000000000E+00   1.6409338629E+01   1.6409338629E+01   0.0000000000E+00  0.  1
       21   -1    0    0  501  502   0.0000000000E+00   0.0000000000E+00  -2.5587127680E+03   2.5587127680E+03   0.0000000000E+00  0.  1
       25    1    1    2    0    0  -7.9753839316E+01  -1.3837189037E+02  -1.0874876534E+03   1.1062377011E+03   1.2500000000E+02  0.  0
       25    1    1    2    0    0   7.9753839316E+01   1.3837189037E+02  -1.4548157759E+03   1.4688844055E+03   1.2500000000E+02  0.  0
</event>
<event>
 4   0  0.3991300E-04  0.4744908E+03  0.7818609E-02  0.1020660E+00
       21   -1    0    0  502  501   0.0000000000E+00   0.0000000000E+00   2.7337721262E+02   2.7337721262E+02   0.0000000000E+00  0. -1
       21   -1    0    0  501  502   0.0000000000E+00   0.0000000000E+00  -2.0588911037E+02   2.0588911037E+02   0.0000000000E+00  0. -1
       25    1    1    2    0    0  -8.8975343040E+01   7.8174302043E+01   1.9858135922E+02   2.6284480097E+02   1.2500000000E+02  0.  0
       25    1    1    2    0    0   8.8975343040E+01  -7.8174302043E+01  -1.3109325697E+02   2.1642152202E+02   1.2500000000E+02  0.  0
</event>
<event>
 4   0  0.3991300E-04  0.5587229E+03  0.7818609E-02  0.9994949E-01
       21   -1    0    0  502  501   0.0000000000E+00   0.0000000000E+00   1.7010743958E+01   1.7010743958E+01   0.0000000000E+00  0.  1
       21   -1    0    0  501  502   0.0000000000E+00   0.0000000000E+00  -4.5878542782E+03   4.5878542782E+03   0.0000000000E+00  0.  1
       25    1    1    2    0    0   8.7197837379E+01   3.1550266147E+01  -4.1974222007E+03   4.2003067761E+03   1.2500000000E+02  0.  0
       25    1    1    2    0    0  -8.7197837379E+01  -3.1550266147E+01  -3.7342133356E+02   4.0455824611E+02   1.2500000000E+02  0.  0
</event>
<event>
 4   0  0.3991300E-04  0.5177168E+03  0.7818609E-02  0.1009255E+00
       21   -1    0    0  502  501   0.0000000000E+00   0.0000000000E+00   6.5199206960E+01   6.5199206960E+01   0.0000000000E+00  0. -1
       21   -1    0    0  501  502   0.0000000000E+00   0.0000000000E+00  -1.0277376847E+03   1.0277376847E+03   0.0000000000E+00  0. -1
       25    1    1    2    0    0  -2.0283147912E+01  -2.1014682480E+02  -6.5547527915E+02   6.9988994538E+02   1.2500000000E+02  0.  0
       25    1    1    2    0    0   2.0283147912E+01   2.1014682480E+02  -3.0706319862E+02   3.9304694632E+02   1.2500000000E+02  0.  0
</event>
<event>
 4   0  0.3991300E-04  0.7544617E+03  0.7818609E-02  0.9628377E-01
       21   -1    0    0  502  501   0.0000000000E+00   0.0000000000E+00   3.1047475943E+03   3.1047475943E+03   0.0000000000E+00  0. -1
       21   -1    0    0  501  502   0.0000000000E+00   0.0000000000E+00  -4.5834033531E+01   4.5834033531E+01   0.0000000000E+00  0. -1
       25    1    1    2    0    0   3.5490369966E+01  -7.7193393028E+01   8.6131241439E+01   1.7395969947E+02   1.2500000000E+02  0.  0
       25    1    1    2    0    0  -3.5490369966E+01   7.7193393028E+01   2.9727823193E+03   2.9766219284E+03   1.2500000000E+02  0.  0
</event>
<event>
 4   0  0.3991300E-04  0.4566145E+03  0.7818609E-02  0.1025768E+00
       21   -1    0    0  502  501   0.0000000000E+00   0.0000000000E+00   2.4534284536E+01   2.4534284536E+01   0.0000000000E+00  0. -1
       21   -1    0    0  501  502   0.0000000000E+00   0.0000000000E+00  -2.1245452637E+03   2.1245452637E+03   0.0000000000E+00  0. -1
       25    1    1    2    0    0   1.2630688493E+01  -1.4081985465E+02  -1.6547457350E+03   1.6654723694E+03   1.2500000000E+02  0.  0
       25    1    1    2    0    0  -1.2630688493E+01   1.4081985465E+02  -4.4526524420E+02   4.8360717887E+02   1.2500000000E+02  0.  0
</event>
<event>
 4   0  0.3991300E-04  0.1106893E+04  0.7818609E-02  0.9198500E-01
       21   -1    0    0  502  501   0.0000000000E+00   0.0000000000E+00   6.7548058184E+02   6.7548058184E+02   0.0000000000E+00  0. -1
       21   -1    0    0  501  502   0.0000000000E+00   0.0000000000E+00  -4.5345924303E+02   4.5345924303E+02   0.0000000000E+00  0. -1
       25    1    1    2    0    0  -1.6239209921E+01  -4.3473642111E+02  -2.1379508074E+02   5.0059245333E+02   1.2500000000E+02  0.  0
       25    1    1    2    0    0   1.6239209921E+01   4.3473642111E+02   4.3581641955E+02   6.2834737155E+02   1.2500000000E+02  0.  0
</event>
<event>
 4   0  0.3991300E-04  0.8563259E+03  0.7818609E-02  0.9481886E-01
       21   -1    0    0  502  501   0.0000000000E+00   0.0000000000E+00   3.5205464050E+01   3.5205464050E+01   0.0000000000E+00  0. -1
       21   -1    0    0  501  502   0.0000000000E+00   0.0000000000E+00  -5.2072458293E+03   5.2072458293E+03   0.0000000000E+00  0. -1
       25    1    1    2    0    0   8.3661883310E+00   1.0516441255E+02  -1.6360732118E+02   2.3134801127E+02   1.2500000000E+02  0.  0
       25    1    1    2    0    0  -8.3661883310E+00  -1.0516441255E+02  -5.0084330441E+03   5.0111032821E+03   1.2500000000E+02  0.  0
</event>
<event>
 4   0  0.3991300E-04  0.4244685E+03  0.7818609E-02  0.1035622E+00
       21   -1    0    0  502  501   0.0000000000E+00   0.0000000000E+00   1.2059202073E+02   1.2059202073E+02   0.0000000000E+00  0. -1
       21   -1    0    0  501  502   0.0000000000E+00   0.0000000000E+00  -3.7351866804E+02   3.7351866804E+02   0.0000000000E+00  0. -1
       25    1    1    2    0    0   1.0527294512E+02  -9.3135843840E+01  -2.4088423910E+02   3.0562541620E+02   1.2500000000E+02  0.  0
       25    1    1    2    0    0  -1.0527294512E+02   9.3135843840E+01  -1.2042408206E+01   1.8848527257E+02   1.2500000000E+02  0.  0
</event>
<event>
 4   0  0.3991300E-04  0.3613755E+03  0.7818609E-02  0.1058041E+00
       21   -1    0    0  502  501   0.0000000000E+00   0.0000000000E+00   1.4104003231E+03   1.4104003231E+03   0.0000000000E+00  0. -1
       21   -1    0    0  501  502   0.0000000000E+00   0.0000000000E+00  -2.3148085047E+01   2.3148085047E+01   0.0000000000E+00  0. -1
       25    1    1    2    0    0  -1.5652558994E+01  -6.4014855916E+01   2.4692603064E+02   2.8450020912E+02   1.2500000000E+02  0.  0
       25    1    1    2    0    0   1.5652558994E+01   6.4014855916E+01   1.1403262075E+03   1.1490481991E+03   1.2500000000E+02  0.  0
</event>
<event>
 4   0  0.3991300E-04  0.3948288E+03  0.7818609E-02  0.1045585E+00
       21   -1    0    0  502  501   0.0000000000E+00   0.0000000000E+00   3.0993992503E+02   3.0993992503E+02   0.0000000000E+00  0. -1
       21   -1    0    0  501  502   0.0000000000E+00   0.0000000000E+00  -1.2574193151E+02   1.2574193151E+02   0.0000000000E+00  0. -1
       25    1    1    2    0    0  -1.4920895365E+02   3.2584291254E+01   8.6876778829E+01   2.1563307396E+02   1.2500000000E+02  0.  0
       25    1    1    2    0    0   1.4920895365E+02  -3.2584291254E+01   9.7321214684E+01   2.2004878258E+02   1.2500000000E+02  0.  0
</event>
<event>
 4   0  0.3991300E-04  0.4272867E+03  0.7818609E-02  0.1034721E+00
       21   -1    0    0  502  501   0.0000000000E+00   0.0000000000E+00   5.9336659969E+02   5.9336659969E+02   0.0000000000E+00  0.  1
       21   -1    0    0  501  502   0.0000000000E+00   0.0000000000E+00  -7.6922898664E+01   7.6922898664E+01   0.0000000000E+00  0.  1
       25    1    1    2    0    0   7.5042576666E+01  -1.3219739792E+02   1.2781164946E+02   2.3466648263E+02   1.2500000000E+02  0.  0
       25    1    1    2    0    0  -7.5042576666E+01   1.3219739792E+02   3.8863205156E+02   4.3562301573E+02   1.2500000000E+02  0.  0
</event>
<event>
 4   0  0.3991300E-04  0.4935787E+03  0.7818609E-02  0.1015469E+00
       21   -1    0    0  502  501   0.0000000000E+00   0.0000000000E+00   7.2630069264E+03   7.2630069264E+03   0.0000000000E+00  0.  1
       21   -1    0    0  501  502   0.0000000000E+00   0.0000000000E+00  -8.3856416070E+00   8.3856416070E+00   0.0000000000E+00  0.  1
       25    1    1    2    0    0  -1.1631528998E+02   6.9219081273E+01   1.2084174422E+03   1.2223821999E+03   1.2500000000E+02  0.  0
       25    1    1    2    0    0   1.1631528998E+02  -6.9219081273E+01   6.0462038426E+03   6.0490103681E+03   1.2500000000E+02  0.  0
</event>
<event>
 4   0  0.3991300E-04  0.4191393E+03  0.7818609E-02  0.1037347E+00
       21   -1    0    0  502  501   0.0000000000E+00   0.0000000000E+00   5.8174563572E+01   5.8174563572E+01   0.0000000000E+00  0. -1
       21   -1    0    0  501  502   0.0000000000E+00   0.0000000000E+00  -7.5495953682E+02   7.5495953682E+02   0.0000000000E+00  0. -1
       25    1    1    2    0    0   1.6084300026E+02  -2.0006590882E+00  -2.5295728322E+02   3.2478740817E+02   1.2500000000E+02  0.  0
       25    1    1    2    0    0  -1.6084300026E+02   2.0006590882E+00  -4.4382769003E+02   4.8834669222E+02   1.2500000000E+02  0.  0
</event>
<event>
 4   0  0.3991300E-04  0.6368972E+03  0.7818609E-02  0.9831681E-01
       21   -1    0    0  502  501   0.0000000000E+00   0.0000000000E+00   5.4295040600E+01   5.4295040600E+01   0.0000000000E+00  0. -1
       21   -1    0    0  501  502   0.0000000000E+00   0.0000000000E+00  -1.8677490480E+03   1.8677490480E+03   0.0000000000E+00  0. -1
       25    1    1    2    0    0   2.6855141921E+01   2.9131280428E+02  -8.6403125713E+02   9.2073848724E+02   1.2500000000E+02  0.  0
       25    1    1    2    0    0  -2.6855141921E+01  -2.9131280428E+02  -9.4942275025E+02   1.0013056013E+03   1.2500000000E+02  0.  0
</event>
<event>
 4   0  0.3991300E-04  0.9858381E+03  0.7818609E-02  0.9324215E-01
       21   -1    0    0  502  501   0.0000000000E+00   0.0000000000E+00   7.0210257372E+02   7.0210257372E+02   0.0000000000E+00  0. -1
       21   -1    0    0  501  502   0.0000000000E+00   0.0000000000E+00  -3.4605941509E+02   3.4605941509E+02   0.0000000000E+00  0. -1
       25    1    1    2    0    0   3.3897672159E+02  -3.2753822934E+02   1.0166425768E+02   4.9814368484E+02   1.2500000000E+02  0.  0
       25    1    1    2    0    0  -3.3897672159E+02   3.2753822934E+02   2.5437890095E+02   5.5001830397E+02   1.2500000000E+02  0.  0
</event>
<event>
 4   0  0.3991300E-04  0.5319616E+03  0.7818609E-02  0.1005758E+00
       21   -1    0    0  502  501   0.0000000000E+00   0.0000000000E+00   2.0114644606E+03   2.0114644606E+03   0.0000000000E+00  0. -1
       21   -1    0    0  501  502   0.0000000000E+00   0.0000000000E+00  -3.5171280929E+01   3.5171280929E+01   0.0000000000E+00  0. -1
       25    1    1    2    0    0   3.0539091881E+01   2.3062615285E+02   8.6649994085E+02   9.0585219876E+02   1.2500000000E+02  0.  0
       25    1    1    2    0    0  -3.0539091881E+01  -2.3062615285E+02   1.1097932388E+03   1.1407835427E+03   1.2500000000E+02  0.  0
</event>
<event>
 4   0  0.3991300E-04  0.3620325E+03  0.7818609E-02  0.1057782E+00
       21   -1    0    0  502  501   0.0000000000E+00   0.0000000000E+00   3.2996452524E+01   3.2996452524E+01   0.0000000000E+00  0. -1
       21   -1    0    0  501  502   0.0000000000E+00   0.0000000000E+00  -9.9304249078E+02   9.9304249078E+02   0.0000000000E+00  0. -1
       25    1    1    2    0    0   6.0033836590E+01  -2.5068738985E+01  -8.0203270563E+02   8.1431809762E+02   1.2500000000E+02  0.  0
       25    1    1    2    0    0  -6.0033836590E+01   2.5068738985E+01  -1.5801333263E+02   2.1172084569E+02   1.2500000000E+02  0.  0
</event>
<event>
 4   0  0.3991300E-04  0.4056479E+03  0.7818609E-02  0.1041841E+00
       21   -1    0    0  502  501   0.0000000000E+00   0.0000000000E+00   1.5697711997E+01   1.5697711997E+01   0.0000000000E+00  0.  1
       21   -1    0    0  501  502   0.0000000000E+00   0.0000000000E+00  -2.6206086171E+03   2.6206086171E+03   0.0000000000E+00  0.  1
       25    1    1    2    0    0   1.2145104207E+02  -1.0016340971E+02  -1.1269228491E+03   1.1447109557E+03   1.2500000000E+02  0.  0
       25    1    1    2    0    0  -1.2145104207E+02   1.0016340971E+02  -1.4779880561E+03   1.4915953735E+03   1.2500000000E+02  0.  0
</event>
<event>
 4   0  0.3991300E-04  0.5445327E+03  0.7818609E-02  0.1002767E+00
       21   -1    0    0  502  501   0.0000000000E+00   0.0000000000E+00   3.0049462182E+03   3.0049462182E+03   0.0000000000E+00  0.  1
       21   -1    0    0  501  502   0.0000000000E+00   0.0000000000E+00  -2.4668977912E+01   2.4668977912E+01   0.0000000000E+00  0.  1
       25    1    1    2    0    0   1.4177385994E+01  -1.7550925283E+02   2.4127644194E+03   2.4224082314E+03   1.2500000000E+02  0.  0
       25    1    1    2    0    0  -1.4177385994E+01   1.7550925283E+02   5.6751282089E+02   6.0720696470E+02   1.2500000000E+02  0.  0
</event>
<event>
 4   0  0.3991300E-04  0.3639385E+03  0.7818609E-02  0.1057035E+00
       21   -1    0    0  502  501   0.0000000000E+00   0.0000000000E+00   5.1247550969E+00   5.1247550969E+00   0.0000000000E+00  0. -1
       21   -1    0    0  501  502   0.0000000000E+00   0.0000000000E+00  -6.4613428550E+03   6.4613428550E+03   0.0000000000E+00  0. -1
       25    1    1    2    0    0   1.3137983844E+02   3.7402201449E+00  -3.4875152398E+03   3.4922288297E+03   1.2500000000E+02  0.  0
       25    1    1    2    0    0  -1.3137983844E+02  -3.7402201449E+00  -2.9687028602E+03   2.9742387805E+03   1.2500000000E+02  0.  0
</event>
<event>
 4   0  0.3991300E-04  0.4437522E+03  0.7818609E-02  0.1029602E+00
       21   -1    0    0  502  501   0.0000000000E+00   0.0000000000E+00   5.9035412883E+02   5.9035412883E+02   0.0000000000E+00  0. -1
       21   -1    0    0  501  502   0.0000000000E+00   0.0000000000E+00  -8.3388946919E+01   8.3388946919E+01   0.0000000000E+00  0. -1
       25    1    1    2    0    0  -7.7762957939E+01  -4.8768227297E+01   1.2564458546E+01   1.5559011292E+02   1.2500000000E+02  0.  0
       25    1    1    2    0    0   7.7762957939E+01   4.8768227297E+01   4.9440072336E+02   5.1815296282E+02   1.2500000000E+02  0.  0
</event>
<event>
 4   0  0.3991300E-04  0.5936923E+03  0.7818609E-02  0.9918580E-01
       21   -1    0    0  502  501   0.0000000000E+00   0.0000000000E+00   5.0239364338E+02   5.0239364338E+02   0.0000000000E+00  0.  1
       21   -1    0    0  501  502   0.0000000000E+00   0.0000000000E+00  -1.7539557843E+02   1.7539557843E+02   0.0000000000E+00  0. -1
       25    1    1    2    0    0  -1.7293757282E+02   1.0191506238E+02  -4.1358228539E+01   2.4006163188E+02   1.2500000000E+02  0.  0
       25    1    1    2    0    0   1.7293757282E+02  -1.0191506238E+02   3.6835629348E+02   4.3772758993E+02   1.2500000000E+02  0.  0
</event>
<event>
 4   0  0.3991300E-04  0.4621631E+03  0.7818609E-02  0.1024156E+00
       21   -1    0    0  502  501   0.0000000000E+00   0.0000000000E+00   7.5979038573E+02   7.5979038573E+02   0.0000000000E+00  0. -1
       21   -1    0    0  501  502   0.0000000000E+00   0.0000000000E+00  -7.0280805160E+01   7.0280805160E+01   0.0000000000E+00  0. -1
       25    1    1    2    0    0   1.5859354602E+02   1.0316049593E+02   4.2466780336E+02   4.8141639354E+02   1.2500000000E+02  0.  0
       25    1    1    2    0    0  -1.5859354602E+02  -1.0316049593E+02   2.6484177720E+02   3.4865479734E+02   1.2500000000E+02  0.  0
</event>
<event>
 4   0  0.3991300E-04  0.4860887E+03  0.7818609E-02  0.1017475E+00
       21   -1    0    0  502  501   0.0000000000E+00   0.0000000000E+00   3.3446737392E+01   3.3446737392E+01   0.0000000000E+00  0. -1
       21   -1    0    0  501  502   0.0000000000E+00   0.0000000000E+00  -1.7661080012E+03   1.7661080012E+03   0.0000000000E+00  0. -1
       25    1    1    2    0    0   5.6090244490E+01  -1.9985626528E+02  -9.3627098725E+02   9.6711788520E+02   1.2500000000E+02  0.  0
       25    1    1    2    0    0  -5.6090244490E+01   1.9985626528E+02  -7.9639027656E+02   8.3243685340E+02   1.2500000000E+02  0.  0
</event>
<event>
 4   0  0.3991300E-04  0.5347037E+03  0.7818609E-02  0.1005098E+00
       21   -1    0    0  502  501   0.0000000000E+00   0.0000000000E+00   1.1985876345E+02   1.1985876345E+02   0.0000000000E+00  0.  1
       21   -1    0    0  501  502   0.0000000000E+00   0.0000000000E+00  -5.9634355660E+02   5.9634355660E+02   0.0000000000E+00  0. -1
       25    1    1    2    0    0  -1.8106816983E+02   1.4851675714E+02  -2.8079125861E+02   3.8640864404E+02   1.2500000000E+02  0.  0
       25    1    1    2    0    0   1.8106816983E+02  -1.4851675714E+02  -1.9569353453E+02   3.2979367601E+02   1.2500000000E+02  0.  0
</event>
<event>
 4   0  0.3991300E-04  0.5633408E+03  0.7818609E-02  0.9984524E-01
       21   -1    0    0  502  501   0.0000000000E+00   0.0000000000E+00   1.7278094186E+02   1.7278094186E+02   0.0000000000E+00  0.  1
       21   -1    0    0  501  502   0.0000000000E+00   0.0000000000E+00  -4.5918385229E+02   4.5918385229E+02   0.0000000000E+00  0. -1
       25    1    1    2    0    0   1.5518944263E+02   1.9847516485E+02  -1.2592897260E+02   3.0815460455E+02   1.2500000000E+02  0.  0
       25    1    1    2    0    0  -1.5518944263E+02  -1.9847516485E+02  -1.6047393783E+02   3.2381018960E+02   1.2500000000E+02  0.  0
</event>
<event>
 4   0  0.3991300E-04  0.6416610E+03  0.7818609E-02  0.9822554E-01
       21   -1    0    0  502  501   0.0000000000E+00   0.0000000000E+00   1.3963094908E+03   1.3963094908E+03   0.0000000000E+00  0.  1
       21   -1    0    0  501  502   0.0000000000E+00   0.0000000000E+00  -7.3717333964E+01   7.3717333964E+01   0.0000000000E+00  0.  1
       25    1    1    2    0    0   1.6577854648E+02  -6.9832232589E+00   1.2214182291E+03   1.2389587493E+03   1.2500000000E+02  0.  0
       25    1    1    2    0    0  -1.6577854648E+02   6.9832232589E+00   1.0117392771E+02   2.3106807553E+02   1.2500000000E+02  0.  0
</event>
<event>
 4   0  0.3991300E-04  0.4950403E+03  0.7818609E-02  0.1015082E+00
       21   -1    0    0  502  501   0.0000000000E+00   0.0000000000E+00   2.7032627622E+02   2.7032627622E+02   0.0000000000E+00  0.  1
       21   -1    0    0  501  502   0.0000000000E+00   0.0000000000E+00  -2.2663804133E+02   2.2663804133E+02   0.0000000000E+00  0.  1
       25    1    1    2    0    0   9.0280157965E+01  -5.9561337632E+01   2.0679686979E+02   2.6474139310E+02   1.2500000000E+02  0.  0
       25    1    1    2    0    0  -9.0280157965E+01   5.9561337632E+01  -1.6310863490E+02   2.3222292445E+02   1.2500000000E+02  0.  0
</event>
<event>
 4   0  0.3991300E-04  0.6980527E+03  0.7818609E-02  0.9720568E-01
       21   -1    0    0  502  501   0.0000000000E+00   0.0000000000E+00   2.9941310547E+01   2.9941310547E+01   0.0000000000E+00  0. -1
       21   -1    0    0  501  502   0.0000000000E+00   0.0000000000E+00  -4.0686059393E+03   4.0686059393E+03   0.0000000000E+00  0. -1
       25    1    1    2    0    0   1.8547120592E+02  -2.5152384437E+02  -1.4770429971E+03   1.5149075311E+03   1.2500000000E+02  0.  0
       25    1    1    2    0    0  -1.8547120592E+02   2.5152384437E+02  -2.5616216317E+03   2.5836397187E+03   1.2500000000E+02  0.  0
</event>
<event>
 4   0  0.3991300E-04  0.6701365E+03  0.7818609E-02  0.9769711E-01
       21   -1    0    0  502  501   0.0000000000E+00   0.0000000000E+00   1.4141062089E+02   1.4141062089E+02   0.0000000000E+00  0. -1
       21   -1    0    0  501  502   0.0000000000E+00   0.0000000000E+00  -7.9393422525E+02   7.9393422525E+02   0.0000000000E+00  0. -1
       25    1    1    2    0    0  -3.2196472164E+01  -8.5545798047E+01   8.8469475937E+01   1.7834389408E+02   1.2500000000E+02  0.  0
       25    1    1    2    0    0   3.2196472164E+01   8.5545798047E+01  -7.4099308029E+02   7.5700095206E+02   1.2500000000E+02  0.  0
</event>
<event>
 4   0  0.3991300E-04  0.3914170E+03  0.7818609E-02  0.1046793E+00
       21   -1    0    0  502  501   0.0000000000E+00   0.0000000000E+00   2.0246935694E+02   2.0246935694E+02   0.0000000000E+00  0. -1
       21   -1    0    0  501  502   0.0000000000E+00   0.0000000000E+00  -1.8917342346E+02   1.8917342346E+02   0.0000000000E+00  0. -1
       25    1    1    2    0    0   1.5029569475E+02  -3.4421805497E+00   1.5380940374E+01   1.9611786710E+02   1.2500000000E+02  0.  0
       25    1    1    2    0    0  -1.5029569475E+02   3.4421805497E+00  -2.0850069008E+00   1.9552491330E+02   1.2500000000E+02  0.  0
</event>
<event>
 4   0  0.3991300E-04  0.7505898E+03  0.7818609E-02  0.9634425E-01
       21   -1    0    0  502  501   0.0000000000E+00   0.0000000000E+00   7.3476366533E+01   7.3476366533E+01   0.0000000000E+00  0. -1
       21   -1    0    0  501  502   0.0000000000E+00   0.0000000000E+00  -1.9168921578E+03   1.9168921578E+03   0.0000000000E+00  0. -1
       25    1    1    2    0    0   2.7632884127E+02   6.6522891904E+01  -3.6271051646E+02   4.7745873373E+02   1.2500000000E+02  0.  0
       25    1    1    2    0    0  -2.7632884127E+02  -6.6522891904E+01  -1.4807052748E+03   1.5129097906E+03   1.2500000000E+02  0.  0
</event>
<event>
 4   0  0.3991300E-04  0.6019817E+03  0.7818609E-02  0.9901303E-01
       21   -1    0    0  502  501   0.0000000000E+00   0.0000000000E+00   5.2491474186E+01   5.2491474186E+01   0.0000000000E+00  0. -1
       21   -1    0    0  501  502   0.0000000000E+00   0.0000000000E+00  -1.7259087979E+03   1.7259087979E+03   0.0000000000E+00  0.  1
       25    1    1    2    0    0   9.0647746119E+01  -2.5111879485E+02  -1.0162341488E+03   1.0581278317E+03   1.2500000000E+02  0.  0
       25    1    1    2    0    0  -9.0647746119E+01   2.5111879485E+02  -6.5718317491E+02   7.2027244039E+02   1.2500000000E+02  0.  0
</event>
<event>
 4   0  0.3991300E-04  0.4270392E+03  0.7818609E-02  0.1034799E+00
       21   -1    0    0  502  501   0.0000000000E+00   0.0000000000E+00   1.2357906199E+01   1.2357906199E+01   0.0000000000E+00  0. -1
       21   -1    0    0  501  502   0.0000000000E+00   0.0000000000E+00  -3.6891857666E+03   3.6891857666E+03   0.0000000000E+00  0. -1
       25    1    1    2    0    0  -1.6831395490E+02  -2.5777960392E+01  -1.5682413511E+03   1.5824032438E+03   1.2500000000E+02  0.  0
       25    1    1    2    0    0   1.6831395490E+02   2.5777960392E+01  -2.1085865094E+03   2.1191404291E+03   1.2500000000E+02  0.  0
</event>
<event>
 4   0  0.3991300E-04  0.4408544E+03  0.7818609E-02  0.1030485E+00
       21   -1    0    0  502  501   0.0000000000E+00   0.0000000000E+00   2.4493135116E+01   2.4493135116E+01   0.0000000000E+00  0.  1
       21   -1    0    0  501  502   0.0000000000E+00   0.0000000000E+00  -1.9837460230E+03   1.9837460230E+03   0.0000000000E+00  0.  1
       25    1    1    2    0    0  -5.4375778025E+01   1.7199893123E+02  -1.0732938782E+03   1.0955022166E+03   1.2500000000E+02  0.  0
       25    1    1    2    0    0   5.4375778025E+01  -1.7199893123E+02  -8.8595900969E+02   9.1273694153E+02   1.2500000000E+02  0.  0
</event>
<event>
 4   0  0.3991300E-04  0.4754998E+03  0.7818609E-02  0.1020379E+00
       21   -1    0    0  502  501   0.0000000000E+00   0.0000000000E+00   1.9228838009E+03   1.9228838009E+03   0.0000000000E+00  0. -1
       21   -1    0    0  501  502   0.0000000000E+00   0.0000000000E+00  -2.9395958004E+01   2.9395958004E+01   0.0000000000E+00  0. -1
       25    1    1    2    0    0   6.7791640730E+01   1.5364042911E+02   1.4094180109E+03   1.4248807731E+03   1.2500000000E+02  0.  0
       25    1    1    2    0    0  -6.7791640730E+01  -1.5364042911E+02   4.8406983199E+02   5.2739898583E+02   1.2500000000E+02  0.  0
</event>
<event>
 4   0  0.3991300E-04  0.8505681E+03  0.7818609E-02  0.9489575E-01
       21   -1    0    0  502  501   0.0000000000E+00   0.0000000000E+00   1.0954948285E+02   1.0954948285E+02   0.0000000000E+00  0.  1
       21   -1    0    0  501  502   0.0000000000E+00   0.0000000000E+00  -1.6510030320E+03   1.6510030320E+03   0.0000000000E+00  0.  1
       25    1    1    2    0    0   2.4665415395E+02   1.5305426029E+02  -1.8171704074E+02   3.6456818450E+02   1.2500000000E+02  0.  0
       25    1    1    2    0    0  -2.4665415395E+02  -1.5305426029E+02  -1.3597365084E+03   1.3959843303E+03   1.2500000000E+02  0.  0
</event>
<event>
 4   0  0.3991300E-04  0.3801862E+03  0.7818609E-02  0.1050865E+00
       21   -1    0    0  502  501   0.0000000000E+00   0.0000000000E+00   3.2300656634E+01   3.2300656634E+01   0.0000000000E+00  0. -1
       21   -1    0    0  501  502   0.0000000000E+00   0.0000000000E+00  -1.1187200042E+03   1.1187200042E+03   0.0000000000E+00  0. -1
       25    1    1    2    0    0  -1.7509917268E+01  -1.1368340582E+02  -2.8489518882E+02   3.3169380846E+02   1.2500000000E+02  0.  0
       25    1    1    2    0    0   1.7509917268E+01   1.1368340582E+02  -8.0152415880E+02   8.1932685242E+02   1.2500000000E+02  0.  0
</event>
<event>
 4   0  0.3991300E-04  0.3414597E+03  0.7818609E-02  0.1066176E+00
       21   -1    0    0  502  501   0.0000000000E+00   0.0000000000E+00   2.3990745969E+03   2.3990745969E+03   0.0000000000E+00  0. -1
       21   -1    0    0  501  502   0.0000000000E+00   0.0000000000E+00  -1.2149965733E+01   1.2149965733E+01   0.0000000000E+00  0. -1
       25    1    1    2    0    0  -6.2831659704E+01   2.0396296069E+01   5.1762465440E+02   5.3658560286E+02   1.2500000000E+02  0.  0
       25    1    1    2    0    0   6.2831659704E+01  -2.0396296069E+01   1.8692999768E+03   1.8746389598E+03   1.2500000000E+02  0.  0
</event>
<event>
 4   0  0.3991300E-04  0.4364138E+03  0.7818609E-02  0.1031853E+00
       21   -1    0    0  502  501   0.0000000000E+00   0.0000000000E+00   1.1373135724E+03   1.1373135724E+03   0.0000000000E+00  0.  1
       21   -1    0    0  501  502   0.0000000000E+00   0.0000000000E+00  -4.1865549750E+01   4.1865549750E+01   0.0000000000E+00  0.  1
       25    1    1    2    0    0   1.6882457793E+01  -1.7230429963E+02   4.2642163042E+02   4.7690061432E+02   1.2500000000E+02  0.  0
       25    1    1    2    0    0  -1.6882457793E+01   1.7230429963E+02   6.6902639221E+02   7.0227850780E+02   1.2500000000E+02  0.  0
</event>
<event>
 4   0  0.3991300E-04  0.3678180E+03  0.7818609E-02  0.1055530E+00
       21   -1    0    0  502  501   0.0000000000E+00   0.0000000000E+00   1.0717461477E+02   1.0717461477E+02   0.0000000000E+00  0. -1
       21   -1    0    0  501  502   0.0000000000E+00   0.0000000000E+00  -3.1558334811E+02   3.1558334811E+02   0.0000000000E+00  0. -1
       25    1    1    2    0    0   2.9993512337E+01  -1.2432905602E+02  -5.4899343398E+01   1.8707288114E+02   1.2500000000E+02  0.  0
       25    1    1    2    0    0  -2.9993512337E+01   1.2432905602E+02  -1.5350938993E+02   2.3568508173E+02   1.2500000000E+02  0.  0
</event>
<event>
 4   0  0.3991300E-04  0.5803700E+03  0.7818609E-02  0.9946990E-01
       21   -1    0    0  502  501   0.0000000000E+00   0.0000000000E+00   1.5252030075E+02   1.5252030075E+02   0.0000000000E+00  0. -1
       21   -1    0    0  501  502   0.0000000000E+00   0.0000000000E+00  -5.5210572457E+02   5.5210572457E+02   0.0000000000E+00  0. -1
       25    1    1    2    0    0   1.8815906372E+02   2.2489947915E+01   1.9662675102E+01   2.2786235277E+02   1.2500000000E+02  0.  0
       25    1    1    2    0    0  -1.8815906372E+02  -2.2489947915E+01  -4.1924809892E+02   4.7676367255E+02   1.2500000000E+02  0.  0
</event>
<event>
 4   0  0.3991300E-04  0.5103851E+03  0.7818609E-02  0.1011103E+00
       21   -1    0    0  502  501   0.0000000000E+00   0.0000000000E+00   4.4727992661E+02   4.4727992661E+02   0.0000000000E+00  0.  1
       21   -1    0    0  501  502   0.0000000000E+00   0.0000000000E+00  -1.4559837370E+02   1.4559837370E+02   0.0000000000E+00  0.  1
       25    1    1    2    0    0  -1.1094193680E+02  -1.5151164549E+02   1.2249393570E+01   2.2591799331E+02   1.2500000000E+02  0.  0
       25    1    1    2    0    0   1.1094193680E+02   1.5151164549E+02   2.8943215934E+02   3.6696030701E+02   1.2500000000E+02  0.  0
</event>
<event>
 4   0  0.3991300E-04  0.6466440E+03  0.7818609E-02  0.9813097E-01
       21   -1    0    0  502  501   0.0000000000E+00   0.0000000000E+00   1.2767631766E+02   1.2767631766E+02   0.0000000000E+00  0. -1
       21   -1    0    0  501  502   0.0000000000E+00   0.0000000000E+00  -8.1876674833E+02   8.1876674833E+02   0.0000000000E+00  0. -1
       25    1    1    2    0    0  -2.2844662206E+02  -1.4928134118E+02  -1.6967067339E+02   3.4479836914E+02   1.2500000000E+02  0.  0
       25    1    1    2    0    0   2.2844662206E+02   1.4928134118E+02  -5.2141975728E+02   6.0164469684E+02   1.2500000000E+02  0.  0
</event>
<event>
 4   0  0.3991300E-04  0.5006523E+03  0.7818609E-02  0.1013609E+00
       21   -1    0    0  502  501   0.0000000000E+00   0.0000000000E+00   4.4746009584E+00   4.4746009584E+00   0.0000000000E+00  0.  1
       21   -1    0    0  501  502   0.0000000000E+00   0.0000000000E+00  -1.4004192814E+04   1.4004192814E+04   0.0000000000E+00  0.  1
       25    1    1    2    0    0   1.5513315528E+02   1.3742833080E+02  -5.2114192365E+03   5.2170363522E+03   1.2500000000E+02  0.  0
       25    1    1    2    0    0  -1.5513315528E+02  -1.3742833080E+02  -8.7882989768E+03   8.7916310630E+03   1.2500000000E+02  0.  0
</event>
<event>
 4   0  0.3991300E-04  0.4100247E+03  0.7818609E-02  0.1040363E+00
       21   -1    0    0  502  501   0.0000000000E+00   0.0000000000E+00   2.1583087792E+02   2.1583087792E+02   0.0000000000E+00  0. -1
       21   -1    0    0  501  502   0.0000000000E+00   0.0000000000E+00  -1.9473614448E+02   1.9473614448E+02   0.0000000000E+00  0. -1
       25    1    1    2    0    0  -1.2393007038E+02  -4.6624123332E+01  -8.3771699093E+01   2.0043744358E+02   1.2500000000E+02  0.  0
       25    1    1    2    0    0   1.2393007038E+02   4.6624123332E+01   1.0486643253E+02   2.1012957882E+02   1.2500000000E+02  0.  0
</event>
<event>
 4   0  0.3991300E-04  0.3656112E+03  0.7818609E-02  0.1056384E+00
       21   -1    0    0  502  501   0.0000000000E+00   0.0000000000E+00   2.4511145627E+02   2.4511145627E+02   0.0000000000E+00  0.  1
       21   -1    0    0  501  502   0.0000000000E+00   0.0000000000E+00  -1.3633754365E+02   1.3633754365E+02   0.0000000000E+00  0.  1
       25    1    1    2    0    0   9.6288540390E+01  -8.1148669500E+01   8.4773306306E+00   1.7763292124E+02   1.2500000000E+02  0.  0
       25    1    1    2    0    0  -9.6288540390E+01   8.1148669500E+01   1.0029658198E+02   2.0381607868E+02   1.2500000000E+02  0.  0
</event>
<event>
 4   0  0.3991300E-04  0.5437734E+03  0.7818609E-02  0.1002945E+00
       21   -1    0    0  502  501   0.0000000000E+00   0.0000000000E+00   1.0030242734E+02   1.0030242734E+02   0.0000000000E+00  0. -1
       21   -1    0    0  501  502   0.0000000000E+00   0.0000000000E+00  -7.3699494304E+02   7.3699494304E+02   0.0000000000E+00  0. -1
       25    1    1    2    0    0  -5.8273885622E+01  -2.3346460529E+02  -2.8771200010E+02   3.9535397136E+02   1.2500000000E+02  0.  0
       25    1    1    2    0    0   5.8273885622E+01   2.3346460529E+02  -3.4898051560E+02   4.4194339902E+02   1.2500000000E+02  0.  0
</event>
<event>
 4   0  0.3991300E-04  0.5201393E+03  0.7818609E-02  0.1008652E+00
       21   -1    0    0  502  501   0.0000000000E+00   0.0000000000E+00   3.4169613719E+02   3.4169613719E+02   0.0000000000E+00  0.  1
       21   -1    0    0  501  502   0.0000000000E+00   0.0000000000E+00  -1.9794260779E+02   1.9794260779E+02   0.0000000000E+00  0.  1
       25    1    1    2    0    0  -1.0653615419E+01  -2.2543140948E+02   1.0594693531E+02   2.7889527247E+02   1.2500000000E+02  0.  0
       25    1    1    2    0    0   1.0653615419E+01   2.2543140948E+02   3.7806594082E+01   2.6074347251E+02   1.2500000000E+02  0.  0
</event>
<event>
 4   0  0.3991300E-04  0.3908231E+03  0.7818609E-02  0.1047004E+00
       21   -1    0    0  502  501   0.0000000000E+00   0.0000000000E+00   4.2603199653E+02   4.2603199653E+02   0.0000000000E+00  0. -1
       21   -1    0    0  501  502   0.0000000000E+00   0.0000000000E+00  -8.9630992293E+01   8.9630992293E+01   0.0000000000E+00  0. -1
       25    1    1    2    0    0   7.1804674832E+01  -1.2857666070E+02   2.0718065338E+02   2.8326081998E+02   1.2500000000E+02  0.  0
       25    1    1    2    0    0  -7.1804674832E+01   1.2857666070E+02   1.2922035086E+02   2.3240216884E+02   1.2500000000E+02  0.  0
</event>
<event>
 4   0  0.3991300E-04  0.3477159E+03  0.7818609E-02  0.1063556E+00
       21   -1    0    0  502  501   0.0000000000E+00   0.0000000000E+00   1.8156300365E+01   1.8156300365E+01   0.0000000000E+00  0. -1
       21   -1    0    0  501  502   0.0000000000E+00   0.0000000000E+00  -1.6647984009E+03   1.6647984009E+03   0.0000000000E+00  0. -1
       25    1    1    2    0    0  -5.8710166066E+01  -6.4632083386E+01  -1.2276123785E+03   1.2370454081E+03   1.2500000000E+02  0.  0
       25    1    1    2    0    0   5.8710166066E+01   6.4632083386E+01  -4.1902972205E+02   4.4590929320E+02   1.2500000000E+02  0.  0
</event>
<event>
 4   0  0.3991300E-04  0.3606924E+03  0.7818609E-02  0.1058310E+00
       21   -1    0    0  502  501   0.0000000000E+00   0.0000000000E+00   9.1213103884E+02   9.1213103884E+02   0.0000000000E+00  0.  1
       21   -1    0    0  501  502   0.0000000000E+00   0.0000000000E+00  -3.5657979288E+01   3.5657979288E+01   0.0000000000E+00  0.  1
       25    1    1    2    0    0   3.5457260454E+01   2.0966374539E+01   1.1424135969E+02   1.7427820989E+02   1.2500000000E+02  0.  0
       25    1    1    2    0    0  -3.5457260454E+01  -2.0966374539E+01   7.6223169986E+02   7.7351080823E+02   1.2500000000E+02  0.  0
</event>
<event>
 4   0  0.3991300E-04  0.7159830E+03  0.7818609E-02  0.9690283E-01
       21   -1    0    0  502  501   0.0000000000E+00   0.0000000000E+00   3.8430729512E+03   3.8430729512E+03   0.0000000000E+00  0. -1
       21   -1    0    0  501  502   0.0000000000E+00   0.0000000000E+00  -3.3347771887E+01   3.3347771887E+01   0.0000000000E+00  0. -1
       25    1    1    2    0    0   2.1972310515E+02   2.5128493524E+02   1.7244366784E+03   1.7608887584E+03   1.2500000000E+02  0.  0
       25    1    1    2    0    0  -2.1972310515E+02  -2.5128493524E+02   2.0852885009E+03   2.1155319647E+03   1.2500000000E+02  0.  0
</event>
<event>
 4   0  0.3991300E-04  0.4186465E+03  0.7818609E-02  0.1037508E+00
       21   -1    0    0  502  501   0.0000000000E+00   0.0000000000E+00   1.6952325247E+01   1.6952325247E+01   0.0000000000E+00  0. -1
       21   -1    0    0  501  502   0.0000000000E+00   0.0000000000E+00  -2.5846732431E+03   2.5846732431E+03   0.0000000000E+00  0. -1
       25    1    1    2    0    0  -7.3433665889E+01   2.6928359864E+01  -2.2071411186E+03   2.2120611558E+03   1.2500000000E+02  0.  0
       25    1    1    2    0    0   7.3433665889E+01  -2.6928359864E+01  -3.6057979932E+02   3.8956441256E+02   1.2500000000E+02  0.  0
</event>
<event>
 4   0  0.3991300E-04  0.4313922E+03  0.7818609E-02  0.1033421E+00
       21   -1    0    0  502  501   0.0000000000E+00   0.0000000000E+00   4.2511492859E+01   4.2511492859E+01   0.0000000000E+00  0.  1
       21   -1    0    0  501  502   0.0000000000E+00   0.0000000000E+00  -1.0944052032E+03   1.0944052032E+03   0.0000000000E+00  0.  1
       25    1    1    2    0    0   8.8826285966E+01   1.4590167718E+02  -4.1657081238E+02   4.6726186471E+02   1.2500000000E+02  0.  0
       25    1    1    2    0    0  -8.8826285966E+01  -1.4590167718E+02  -6.3532289797E+02   6.6965483136E+02   1.2500000000E+02  0.  0
</event>
<event>
 4   0  0.3991300E-04  0.3511890E+03  0.7818609E-02  0.1062128E+00
       21   -1    0    0  502  501   0.0000000000E+00   0.0000000000E+00   1.1137283452E+01   1.1137283452E+01   0.0000000000E+00  0.  1
       21   -1    0    0  501  502   0.0000000000E+00   0.0000000000E+00  -2.7684872607E+03   2.7684872607E+03   0.0000000000E+00  0.  1
       25    1    1    2    0    0  -1.0232814015E+02  -1.1361332094E+01  -1.9159734246E+03   1.9228050582E+03   1.2500000000E+02  0.  0
       25    1    1    2    0    0   1.0232814015E+02   1.1361332094E+01  -8.4137655270E+02   8.5681948599E+02   1.2500000000E+02  0.  0
</event>
<event>
 4   0  0.3991300E-04  0.6093623E+03  0.7818609E-02  0.9886170E-01
       21   -1    0    0  502  501   0.0000000000E+00   0.0000000000E+00   2.7666463632E+03   2.7666463632E+03   0.0000000000E+00  0.  1
       21   -1    0    0  501  502   0.0000000000E+00   0.0000000000E+00  -3.3553476053E+01   3.3553476053E+01   0.0000000000E+00  0.  1
       25    1    1    2    0    0  -8.0021978168E+01   2.4840084892E+02   1.8048881105E+03   1.8279367030E+03   1.2500000000E+02  0.  0
       25    1    1    2    0    0   8.0021978168E+01  -2.4840084892E+02   9.2820477663E+02   9.7226313624E+02   1.2500000000E+02  0.  0
</event>
<event>
 4   0  0.3991300E-04  0.3571259E+03  0.7818609E-02  0.1059728E+00
       21   -1    0    0  502  501   0.0000000000E+00   0.0000000000E+00   3.1951355052E+02   3.1951355052E+02   0.0000000000E+00  0. -1
       21   -1    0    0  501  502   0.0000000000E+00   0.0000000000E+00  -9.9791476835E+01   9.9791476835E+01   0.0000000000E+00  0. -1
       25    1    1    2    0    0  -7.1148592932E+01   1.0350502208E+02   1.3569991512E+02   2.2319247038E+02   1.2500000000E+02  0.  0
       25    1    1    2    0    0   7.1148592932E+01  -1.0350502208E+02   8.4022158566E+01   1.9611255697E+02   1.2500000000E+02  0.  0
</event>
<event>
 4   0  0.3991300E-04  0.6348629E+03  0.7818609E-02  0.9835605E-01
       21   -1    0    0  502  501   0.0000000000E+00   0.0000000000E+00   2.4540708411E+02   2.4540708411E+02   0.0000000000E+00  0.  1
       21   -1    0    0  501  502   0.0000000000E+00   0.0000000000E+00  -4.1059424595E+02   4.1059424595E+02   0.0000000000E+00  0.  1
       25    1    1    2    0    0   1.1741125600E+02   2.1400780926E+02  -2.4776907699E+02   3.6959337247E+02   1.2500000000E+02  0.  0
       25    1    1    2    0    0  -1.1741125600E+02  -2.1400780926E+02   8.2581915148E+01   2.8640795759E+02   1.2500000000E+02  0.  0
</event>
<event>
 4   0  0.3991300E-04  0.5662793E+03  0.7818609E-02  0.9977946E-01
       21   -1    0    0  502  501   0.0000000000E+00   0.0000000000E+00   4.5679712116E+02   4.5679712116E+02   0.0000000000E+00  0.  1
       21   -1    0    0  501  502   0.0000000000E+00   0.0000000000E+00  -1.7550036523E+02   1.7550036523E+02   0.0000000000E+00  0.  1
       25    1    1    2    0    0  -1.7840532527E+02   1.3561796903E+02   7.0201582970E+00   2.5670016796E+02   1.2500000000E+02  0.  0
       25    1    1    2    0    0   1.7840532527E+02  -1.3561796903E+02   2.7427659762E+02   3.7559731843E+02   1.2500000000E+02  0.  0
</event>
<event>
 4   0  0.3991300E-04  0.5397273E+03  0.7818609E-02  0.1003900E+00
       21   -1    0    0  502  501   0.0000000000E+00   0.0000000000E+00   3.9295440254E+02   3.9295440254E+02   0.0000000000E+00  0. -1
       21   -1    0    0  501  502   0.0000000000E+00   0.0000000000E+00  -1.8533035912E+02   1.8533035912E+02   0.0000000000E+00  0. -1
       25    1    1    2    0    0   2.2783475082E+02  -7.2736008324E+01   1.0223007830E+02   2.8857440894E+02   1.2500000000E+02  0.  0
       25    1    1    2    0    0  -2.2783475082E+02   7.2736008324E+01   1.0539396512E+02   2.8971035272E+02   1.2500000000E+02  0.  0
</event>
<event>
 4   0  0.3991300E-04  0.5571509E+03  0.7818609E-02  0.9998522E-01
       21   -1    0    0  502  501   0.0000000000E+00   0.0000000000E+00   2.6128076391E+02   2.6128076391E+02   0.0000000000E+00  0. -1
       21   -1    0    0  501  502   0.0000000000E+00   0.0000000000E+00  -2.9701485345E+02   2.9701485345E+02   0.0000000000E+00  0. -1
       25    1    1    2    0    0   9.1716743653E+01   4.4366965321E+01   2.0975355006E+02   2.6457879817E+02   1.2500000000E+02  0.  0
       25    1    1    2    0    0  -9.1716743653E+01  -4.4366965321E+01  -2.4548763960E+02   2.9371681919E+02   1.2500000000E+02  0.  0
</event>
<event>
 4   0  0.3991300E-04  0.5114746E+03  0.7818609E-02  0.1010827E+00
       21   -1    0    0  502  501   0.0000000000E+00   0.0000000000E+00   1.9392337332E+03   1.9392337332E+03   0.0000000000E+00  0. -1
       21   -1    0    0  501  502   0.0000000000E+00   0.0000000000E+00  -3.3725468003E+01   3.3725468003E+01   0.0000000000E+00  0. -1
       25    1    1    2    0    0   1.7757667147E+01  -5.2095385927E+01   1.1874211286E+02   1.8098053305E+02   1.2500000000E+02  0.  0
       25    1    1    2    0    0  -1.7757667147E+01   5.2095385927E+01   1.7867661523E+03   1.7919786681E+03   1.2500000000E+02  0.  0
</event>
<event>
 4   0  0.3991300E-04  0.1642963E+04  0.7818609E-02  0.8794581E-01
       21   -1    0    0  502  501   0.0000000000E+00   0.0000000000E+00   1.9531935347E+03   1.9531935347E+03   0.0000000000E+00  0. -1
       21   -1    0    0  501  502   0.0000000000E+00   0.0000000000E+00  -3.4550168656E+02   3.4550168656E+02   0.0000000000E+00  0. -1
       25    1    1    2    0    0   3.9442219779E+02  -1.3829433909E+01   1.7965741070E+03   1.8436549691E+03   1.2500000000E+02  0.  0
       25    1    1    2    0    0  -3.9442219779E+02   1.3829433909E+01  -1.8888225883E+02   4.5504025213E+02   1.2500000000E+02  0.  0
</event>
<event>
 4   0  0.3991300E-04  0.6341754E+03  0.7818609E-02  0.9836935E-01
       21   -1    0    0  502  501   0.0000000000E+00   0.0000000000E+00   7.0738222353E+01   7.0738222353E+01   0.0000000000E+00  0. -1
       21   -1    0    0  501  502   0.0000000000E+00   0.0000000000E+00  -1.4213618172E+03   1.4213618172E+03   0.0000000000E+00  0. -1
       25    1    1    2    0    0  -2.3238439046E+02  -1.5256371950E+02  -8.8098392538E+02   9.3222093423E+02   1.2500000000E+02  0.  0
       25    1    1    2    0    0   2.3238439046E+02   1.5256371950E+02  -4.6963966943E+02   5.5987910529E+02   1.2500000000E+02  0.  0
</event>
<event>
 4   0  0.3991300E-04  0.5628005E+03  0.7818609E-02  0.9985738E-01
       21   -1    0    0  502  501   0.0000000000E+00   0.0000000000E+00   7.5203224343E+01   7.5203224343E+01   0.0000000000E+00  0. -1
       21   -1    0    0  501  502   0.0000000000E+00   0.0000000000E+00  -1.0529616384E+03   1.0529616384E+03   0.0000000000E+00  0. -1
       25    1    1    2    0    0   2.1546686747E+02   9.0082571065E+01  -6.7926205994E+02   7.2908352516E+02   1.2500000000E+02  0.  0
       25    1    1    2    0    0  -2.1546686747E+02  -9.0082571065E+01  -2.9849635414E+02   3.9908133760E+02   1.2500000000E+02  0.  0
</event>
<event>
 4   0  0.3991300E-04  0.5734733E+03  0.7818609E-02  0.9962022E-01
       21   -1    0    0  502  501   0.0000000000E+00   0.0000000000E+00   3.5628113203E+02   3.5628113203E+02   0.0000000000E+00  0. -1
       21   -1    0    0  501  502   0.0000000000E+00   0.0000000000E+00  -2.3076696423E+02   2.3076696423E+02   0.0000000000E+00  0. -1
       25    1    1    2    0    0   1.0534540964E+02   1.9549582418E+02   1.9730907638E+02   3.2229201700E+02   1.2500000000E+02  0.  0
       25    1    1    2    0    0  -1.0534540964E+02  -1.9549582418E+02  -7.1794908578E+01   2.6475607925E+02   1.2500000000E+02  0.  0
</event>
<event>
 4   0  0.3991300E-04  0.5325988E+03  0.7818609E-02  0.1005604E+00
       21   -1    0    0  502  501   0.0000000000E+00   0.0000000000E+00   5.3087177819E+03   5.3087177819E+03   0.0000000000E+00  0. -1
       21   -1    0    0  501  502   0.0000000000E+00   0.0000000000E+00  -1.3358286175E+01   1.3358286175E+01   0.0000000000E+00  0. -1
       25    1    1    2    0    0  -1.2323357539E+01   2.2584351695E+02   3.2901081532E+03   3.3002414789E+03   1.2500000000E+02  0.  0
       25    1    1    2    0    0   1.2323357539E+01  -2.2584351695E+02   2.0052513425E+03   2.0218345892E+03   1.2500000000E+02  0.  0
</event>
<event>
 4   0  0.3991300E-04  0.2768172E+03  0.7818609E-02  0.1097440E+00
       21   -1    0    0  502  501   0.0000000000E+00   0.0000000000E+00   5.4084288533E+03   5.4084288533E+03   0.0000000000E+00  0.  1
       21   -1    0    0  501  502   0.0000000000E+00   0.0000000000E+00  -3.5420521615E+00   3.5420521615E+00   0.0000000000E+00  0.  1
       25    1    1    2    0    0   3.7881563203E+01   3.3854958275E+01   2.0996072884E+03   2.1039384346E+03   1.2500000000E+02  0.  0
       25    1    1    2    0    0  -3.7881563203E+01  -3.3854958275E+01   3.3052795128E+03   3.3080324709E+03   1.2500000000E+02  0.  0
</event>
<event>
 4   0  0.3991300E-04  0.8568924E+03  0.7818609E-02  0.9481133E-01
       21   -1    0    0  502  501   0.0000000000E+00   0.0000000000E+00   9.2403264826E+01   9.2403264826E+01   0.0000000000E+00  0. -1
       21   -1    0    0  501  502   0.0000000000E+00   0.0000000000E+00  -1.9865764091E+03   1.9865764091E+03   0.0000000000E+00  0. -1
       25    1    1    2    0    0   2.4187482448E+02   3.2277884962E+02  -1.1229059987E+03   1.1996801650E+03   1.2500000000E+02  0.  0
       25    1    1    2    0    0  -2.4187482448E+02  -3.2277884962E+02  -7.7126714559E+02   8.7929950889E+02   1.2500000000E+02  0.  0
</event>
<event>
 4   0  0.3991300E-04  0.3706270E+03  0.7818609E-02  0.1054453E+00
       21   -1    0    0  502  501   0.0000000000E+00   0.0000000000E+00   3.1426768346E+01   3.1426768346E+01   0.0000000000E+00  0.  1
       21   -1    0    0  501  502   0.0000000000E+00   0.0000000000E+00  -1.0927338244E+03   1.0927338244E+03   0.0000000000E+00  0.  1
       25    1    1    2    0    0   5.3083491666E+01   1.1226678005E+02  -7.0474594361E+02   7.2643893895E+02   1.2500000000E+02  0.  0
       25    1    1    2    0    0  -5.3083491666E+01  -1.1226678005E+02  -3.5656111243E+02   3.9772165378E+02   1.2500000000E+02  0.  0
</event>
<event>
 4   0  0.3991300E-04  0.4872923E+03  0.7818609E-02  0.1017150E+00
       21   -1    0    0  502  501   0.0000000000E+00   0.0000000000E+00   5.6218525822E+03   5.6218525822E+03   0.0000000000E+00  0. -1
       21   -1    0    0  501  502   0.0000000000E+00   0.0000000000E+00  -1.0559407898E+01   1.0559407898E+01   0.0000000000E+00  0. -1
       25    1    1    2    0    0   1.2719316788E+02   1.6679216854E+01   8.9647880816E+02   9.1419667015E+02   1.2500000000E+02  0.  0
       25    1    1    2    0    0  -1.2719316788E+02  -1.6679216854E+01   4.7148143661E+03   4.7182153199E+03   1.2500000000E+02  0.  0
</event>
<event>
 4   0  0.3991300E-04  0.4236287E+03  0.7818609E-02  0.1035892E+00
       21   -1    0    0  502  501   0.0000000000E+00   0.0000000000E+00   3.8050404768E+02   3.8050404768E+02   0.0000000000E+00  0.  1
       21   -1    0    0  501  502   0.0000000000E+00   0.0000000000E+00  -1.1791024502E+02   1.1791024502E+02   0.0000000000E+00  0.  1
       25    1    1    2    0    0   1.2090657862E+02   6.4271974082E+01   2.5180446675E+02   3.1269758055E+02   1.2500000000E+02  0.  0
       25    1    1    2    0    0  -1.2090657862E+02  -6.4271974082E+01   1.0789335912E+01   1.8571671216E+02   1.2500000000E+02  0.  0
</event>
<event>
 4   0  0.3991300E-04  0.4618607E+03  0.7818609E-02  0.1024243E+00
       21   -1    0    0  502  501   0.0000000000E+00   0.0000000000E+00   7.9418311637E+02   7.9418311637E+02   0.0000000000E+00  0. -1
       21   -1    0    0  501  502   0.0000000000E+00   0.0000000000E+00  -6.7149281536E+01   6.7149281536E+01   0.0000000000E+00  0. -1
       25    1    1    2    0    0   5.0978209863E+00  -9.1044849234E+01   4.3811667618E+01   1.6080924902E+02   1.2500000000E+02  0.  0
       25    1    1    2    0    0  -5.0978209863E+00   9.1044849234E+01   6.8322216722E+02   7.0052314889E+02   1.2500000000E+02  0.  0
</event>
<event>
 4   0  0.3991300E-04  0.5912223E+03  0.7818609E-02  0.9923786E-01
       21   -1    0    0  502  501   0.0000000000E+00   0.0000000000E+00   2.9628353656E+01   2.9628353656E+01   0.0000000000E+00  0.  1
       21   -1    0    0  501  502   0.0000000000E+00   0.0000000000E+00  -2.9494026407E+03   2.9494026407E+03   0.0000000000E+00  0.  1
       25    1    1    2    0    0   1.7857816865E+02   5.2467191965E+01  -4.8911707633E+02   5.3805527867E+02   1.2500000000E+02  0.  0
       25    1    1    2    0    0  -1.7857816865E+02  -5.2467191965E+01  -2.4306572108E+03   2.4409757157E+03   1.2500000000E+02  0.  0
</event>
<event>
 4   0  0.3991300E-04  0.3800064E+03  0.7818609E-02  0.1050931E+00
       21   -1    0    0  502  501   0.0000000000E+00   0.0000000000E+00   4.2580128644E+01   4.2580128644E+01   0.0000000000E+00  0.  1
       21   -1    0    0  501  502   0.0000000000E+00   0.0000000000E+00  -8.4784170682E+02   8.4784170682E+02   0.0000000000E+00  0.  1
       25    1    1    2    0    0   1.2517385110E+02  -6.3948583738E+01  -3.3983128288E+02   3.8841757837E+02   1.2500000000E+02  0.  0
       25    1    1    2    0    0  -1.2517385110E+02   6.3948583738E+01  -4.6543029529E+02   5.0200425709E+02   1.2500000000E+02  0.  0
</event>
<event>
 4   0  0.3991300E-04  0.5248516E+03  0.7818609E-02  0.1007488E+00
       21   -1    0    0  502  501   0.0000000000E+00   0.0000000000E+00   1.4247886881E+01   1.4247886881E+01   0.0000000000E+00  0. -1
       21   -1    0    0  501  502   0.0000000000E+00   0.0000000000E+00  -4.8335092303E+03   4.8335092303E+03   0.0000000000E+00  0. -1
       25    1    1    2    0    0   1.4298013622E+01  -1.3356015362E+02  -4.1425281750E+03   4.1465898553E+03   1.2500000000E+02  0.  0
       25    1    1    2    0    0  -1.4298013622E+01   1.3356015362E+02  -6.7673316848E+02   7.0116726189E+02   1.2500000000E+02  0.  0
</event>
<event>
 4   0  0.3991300E-04  0.6935429E+03  0.7818609E-02  0.9728339E-01
       21   -1    0    0  502  501   0.0000000000E+00   0.0000000000E+00   1.3576157746E+04   1.3576157746E+04   0.0000000000E+00  0. -1
       21   -1    0    0  501  502   0.0000000000E+00   0.0000000000E+00  -8.8574727682E+00   8.8574727682E+00   0.0000000000E+00  0. -1
       25    1    1    2    0    0  -2.0124164567E+02   1.2669438833E+02   1.1078519421E+04   1.1081776357E+04   1.2500000000E+02  0.  0
       25    1    1    2    0    0   2.0124164567E+02  -1.2669438833E+02   2.4887808525E+03   2.5032388619E+03   1.2500000000E+02  0.  0
</event>
<event>
 4   0  0.3991300E-04  0.5567997E+03  0.7818609E-02  0.9999322E-01
       21   -1    0    0  502  501   0.0000000000E+00   0.0000000000E+00   2.2450916626E+02   2.2450916626E+02   0.0000000000E+00  0.  1
       21   -1    0    0  501  502   0.0000000000E+00   0.0000000000E+00  -3.4522638074E+02   3.4522638074E+02   0.0000000000E+00  0.  1
       25    1    1    2    0    0   1.3979835234E+02  -1.4580352656E+02   8.8201348536E+01   2.5339046066E+02   1.2500000000E+02  0.  0
       25    1    1    2    0    0  -1.3979835234E+02   1.4580352656E+02  -2.0891856303E+02   3.1634508634E+02   1.2500000000E+02  0.  0
</event>
<event>
 4   0  0.3991300E-04  0.3250200E+03  0.7818609E-02  0.1073362E+00
       21   -1    0    0  502  501   0.0000000000E+00   0.0000000000E+00   1.2698084337E+02   1.2698084337E+02   0.0000000000E+00  0. -1
       21   -1    0    0  501  502   0.0000000000E+00   0.0000000000E+00  -2.0798022440E+02   2.0798022440E+02   0.0000000000E+00  0. -1
       25    1    1    2    0    0  -3.5413115607E+01  -9.7519212325E+01  -3.5842768070E+01   1.6635440948E+02   1.2500000000E+02  0.  0
       25    1    1    2    0    0   3.5413115607E+01   9.7519212325E+01  -4.5156612958E+01   1.6860665830E+02   1.2500000000E+02  0.  0
</event>
<event>
 4   0  0.3991300E-04  0.4478315E+03  0.7818609E-02  0.1028371E+00
       21   -1    0    0  502  501   0.0000000000E+00   0.0000000000E+00   6.4116397279E+00   6.4116397279E+00   0.0000000000E+00  0. -1
       21   -1    0    0  501  502   0.0000000000E+00   0.0000000000E+00  -7.8198802314E+03   7.8198802314E+03   0.0000000000E+00  0. -1
       25    1    1    2    0    0   5.9475936734E+01   1.9547802662E+01  -8.4999920256E+02   8.6141926377E+02   1.2500000000E+02  0.  0
       25    1    1    2    0    0  -5.9475936734E+01  -1.9547802662E+01  -6.9634693891E+03   6.9648726074E+03   1.2500000000E+02  0.  0
</event>
<event>
 4   0  0.3991300E-04  0.5670025E+03  0.7818609E-02  0.9976334E-01
       21   -1    0    0  502  501   0.0000000000E+00   0.0000000000E+00   4.3532097127E+03   4.3532097127E+03   0.0000000000E+00  0.  1
       21   -1    0    0  501  502   0.0000000000E+00   0.0000000000E+00  -1.8462921639E+01   1.8462921639E+01   0.0000000000E+00  0.  1
       25    1    1    2    0    0   8.5271271702E+00   2.4203758877E+02   2.7692126109E+03   2.7825920273E+03   1.2500000000E+02  0.  0
       25    1    1    2    0    0  -8.5271271702E+00  -2.4203758877E+02   1.5655341801E+03   1.5890806070E+03   1.2500000000E+02  0.  0
</event>
<event>
 4   0  0.3991300E-04  0.3655628E+03  0.7818609E-02  0.1056403E+00
       21   -1    0    0  502  501   0.0000000000E+00   0.0000000000E+00   1.2815254532E+03   1.2815254532E+03   0.0000000000E+00  0.  1
       21   -1    0    0  501  502   0.0000000000E+00   0.0000000000E+00  -2.6069739892E+01   2.6069739892E+01   0.0000000000E+00  0.  1
       25    1    1    2    0    0   1.6075968475E+00  -1.1839850650E+02   8.4715612282E+02   8.6447630803E+02   1.2500000000E+02  0.  0
       25    1    1    2    0    0  -1.6075968475E+00   1.1839850650E+02   4.0829959046E+02   4.4311888504E+02   1.2500000000E+02  0.  0
</event>
<event>
 4   0  0.3991300E-04  0.5914350E+03  0.7818609E-02  0.9923337E-01
       21   -1    0    0  502  501   0.0000000000E+00   0.0000000000E+00   9.8613666871E+01   9.8613666871E+01   0.0000000000E+00  0.  1
       21   -1    0    0  501  502   0.0000000000E+00   0.0000000000E+00  -8.8678222795E+02   8.8678222795E+02   0.0000000000E+00  0.  1
       25    1    1    2    0    0  -1.5566372360E+02  -3.4594930085E+01  -7.5295931277E+02   7.7974401615E+02   1.2500000000E+02  0.  0
       25    1    1    2    0    0   1.5566372360E+02   3.4594930085E+01  -3.5209248307E+01   2.0565187867E+02   1.2500000000E+02  0.  0
</event>
<event>
 4   0  0.3991300E-04  0.5671038E+03  0.7818609E-02  0.9976108E-01
       21   -1    0    0  502  501   0.0000000000E+00   0.0000000000E+00   3.5538628888E+02   3.5538628888E+02   0.0000000000E+00  0. -1
       21   -1    0    0  501  502   0.0000000000E+00   0.0000000000E+00  -2.2623742258E+02   2.2623742258E+02   0.0000000000E+00  0. -1
       25    1    1    2    0    0  -8.0538477582E+01  -1.1439984848E+01  -1.8276271829E+02   2.3589092993E+02   1.2500000000E+02  0.  0
       25    1    1    2    0    0   8.0538477582E+01   1.1439984848E+01   3.1191158459E+02   3.4573278153E+02   1.2500000000E+02  0.  0
</event>
<event>
 4   0  0.3991300E-04  0.4572358E+03  0.7818609E-02  0.1025586E+00
       21   -1    0    0  502  501   0.0000000000E+00   0.0000000000E+00   7.7805810301E+00   7.7805810301E+00   0.0000000000E+00  0.  1
       21   -1    0    0  501  502   0.0000000000E+00   0.0000000000E+00  -6.7175116538E+03   6.7175116538E+03   0.0000000000E+00  0.  1
       25    1    1    2    0    0  -5.6612022090E+01   1.4520876658E+02  -4.9894810297E+03   4.9934793934E+03   1.2500000000E+02  0.  0
       25    1    1    2    0    0   5.6612022090E+01  -1.4520876658E+02  -1.7202500431E+03   1.7318128414E+03   1.2500000000E+02  0.  0
</event>
<event>
 4   0  0.3991300E-04  0.4309925E+03  0.7818609E-02  0.1033547E+00
       21   -1    0    0  502  501   0.0000000000E+00   0.0000000000E+00   2.9400105010E+02   2.9400105010E+02   0.0000000000E+00  0. -1
       21   -1    0    0  501  502   0.0000000000E+00   0.0000000000E+00  -1.5795398283E+02   1.5795398283E+02   0.0000000000E+00  0. -1
       25    1    1    2    0    0  -8.9810266947E+01  -1.1796056029E+02  -3.0532011674E+01   1.9631042145E+02   1.2500000000E+02  0.  0
       25    1    1    2    0    0   8.9810266947E+01   1.1796056029E+02   1.6657907895E+02   2.5564461148E+02   1.2500000000E+02  0.  0
</event>
<event>
 4   0  0.3991300E-04  0.3800261E+03  0.7818609E-02  0.1050924E+00
       21   -1    0    0  502  501   0.0000000000E+00   0.0000000000E+00   7.7981819960E+02   7.7981819960E+02   0.0000000000E+00  0.  1
       21   -1    0    0  501  502   0.0000000000E+00   0.0000000000E+00  -4.6299207921E+01   4.6299207921E+01   0.0000000000E+00  0.  1
       25    1    1    2    0    0  -1.3130175158E+02  -3.9325539248E+01   2.7730597420E+02   3.3363190995E+02   1.2500000000E+02  0.  0
       25    1    1    2    0    0   1.3130175158E+02   3.9325539248E+01   4.5621301747E+02   4.9248549757E+02   1.2500000000E+02  0.  0
</event>
<event>
 4   0  0.3991300E-04  0.4735405E+03  0.7818609E-02  0.1020926E+00
       21   -1    0    0  502  501   0.0000000000E+00   0.0000000000E+00   2.7198308116E+02   2.7198308116E+02   0.0000000000E+00  0. -1
       21   -1    0    0  501  502   0.0000000000E+00   0.0000000000E+00  -2.0611635024E+02   2.0611635024E+02   0.0000000000E+00  0. -1
       25    1    1    2    0    0  -5.5185062355E+01   1.7972385503E+02  -3.9091385303E+01   2.2912702062E+02   1.2500000000E+02  0.  0
       25    1    1    2    0    0   5.5185062355E+01  -1.7972385503E+02   1.0495811622E+02   2.4897241079E+02   1.2500000000E+02  0.  0
</event>
<event>
 4   0  0.3991300E-04  0.6290431E+03  0.7818609E-02  0.9846918E-01
       21   -1    0    0  502  501   0.0000000000E+00   0.0000000000E+00   1.1851526917E+03   1.1851526917E+03   0.0000000000E+00  0. -1
       21   -1    0    0  501  502   0.0000000000E+00   0.0000000000E+00  -8.3469254345E+01   8.3469254345E+01   0.0000000000E+00  0. -1
       25    1    1    2    0    0  -7.6347193726E+00   2.8068077899E+02   4.1617449344E+02   5.1736466600E+02   1.2500000000E+02  0.  0
       25    1    1    2    0    0   7.6347193726E+00  -2.8068077899E+02   6.8550894390E+02   7.5125728003E+02   1.2500000000E+02  0.  0
</event>
<event>
 4   0  0.3991300E-04  0.5320512E+03  0.7818609E-02  0.1005736E+00
       21   -1    0    0  502  501   0.0000000000E+00   0.0000000000E+00   7.0420297001E+02   7.0420297001E+02   0.0000000000E+00  0.  1
       21   -1    0    0  501  502   0.0000000000E+00   0.0000000000E+00  -1.0049604180E+02   1.0049604180E+02   0.0000000000E+00  0.  1
       25    1    1    2    0    0   2.1176231694E+02  -4.4715417776E+00   1.4849601481E+02   2.8729660627E+02   1.2500000000E+02  0.  0
       25    1    1    2    0    0  -2.1176231694E+02   4.4715417776E+00   4.5521091341E+02   5.1740240553E+02   1.2500000000E+02  0.  0
</event>
<event>
 4   0  0.3991300E-04  0.3825774E+03  0.7818609E-02  0.1049985E+00
       21   -1    0    0  502  501   0.0000000000E+00   0.0000000000E+00   4.4814825044E+01   4.4814825044E+01   0.0000000000E+00  0. -1
       21   -1    0    0  501  502   0.0000000000E+00   0.0000000000E+00  -8.1650124734E+02   8.1650124734E+02   0.0000000000E+00  0. -1
       25    1    1    2    0    0   1.1092191774E+02  -3.4321960633E+01  -5.8061687587E+02   6.0516330471E+02   1.2500000000E+02  0.  0
       25    1    1    2    0    0  -1.1092191774E+02   3.4321960633E+01  -1.9106954643E+02   2.5615276768E+02   1.2500000000E+02  0.  0
</event>
<event>
 4   0  0.3991300E-04  0.3987249E+03  0.7818609E-02  0.1044222E+00
       21   -1    0    0  502  501   0.0000000000E+00   0.0000000000E+00   6.2496652259E+01   6.2496652259E+01   0.0000000000E+00  0. -1
       21   -1    0    0  501  502   0.0000000000E+00   0.0000000000E+00  -6.3596010471E+02   6.3596010471E+02   0.0000000000E+00  0. -1
       25    1    1    2    0    0   5.0632016527E+01  -4.1431556085E+01  -5.3347155860E+02   5.5181253952E+02   1.2500000000E+02  0.  0
       25    1    1    2    0    0  -5.0632016527E+01   4.1431556085E+01  -3.9991893851E+01   1.4664421745E+02   1.2500000000E+02  0.  0
</event>
<event>
 4   0  0.3991300E-04  0.3041871E+03  0.7818609E-02  0.1083166E+00
       21   -1    0    0  502  501   0.0000000000E+00   0.0000000000E+00   3.1928460646E+02   3.1928460646E+02   0.0000000000E+00  0.  1
       21   -1    0    0  501  502   0.0000000000E+00   0.0000000000E+00  -7.2450852770E+01   7.2450852770E+01   0.0000000000E+00  0.  1
       25    1    1    2    0    0  -4.0856980316E+01   5.3941199253E+01   5.3726232434E+01   1.5195543383E+02   1.2500000000E+02  0.  0
       25    1    1    2    0    0   4.0856980316E+01  -5.3941199253E+01   1.9310752125E+02   2.3978002540E+02   1.2500000000E+02  0.  0
</event>
<event>
 4   0  0.3991300E-04  0.4620092E+03  0.7818609E-02  0.1024200E+00
       21   -1    0    0  502  501   0.0000000000E+00   0.0000000000E+00   3.7946665260E+03   3.7946665260E+03   0.0000000000E+00  0. -1
       21   -1    0    0  501  502   0.0000000000E+00   0.0000000000E+00  -1.4062665621E+01   1.4062665621E+01   0.0000000000E+00  0. -1
       25    1    1    2    0    0  -3.3563681111E+01  -1.4157234090E+02   8.2915379064E+02   8.5105244076E+02   1.2500000000E+02  0.  0
       25    1    1    2    0    0   3.3563681111E+01   1.4157234090E+02   2.9514500697E+03   2.9576767509E+03   1.2500000000E+02  0.  0
</event>
<event>
 4   0  0.3991300E-04  0.5178189E+03  0.7818609E-02  0.1009230E+00
       21   -1    0    0  502  501   0.0000000000E+00   0.0000000000E+00   9.7551201846E+03   9.7551201846E+03   0.0000000000E+00  0. -1
       21   -1    0    0  501  502   0.0000000000E+00   0.0000000000E+00  -6.8716839822E+00   6.8716839822E+00   0.0000000000E+00  0. -1
       25    1    1    2    0    0  -1.1880316926E+02  -4.1203395054E+01   8.4309976263E+03   8.4328617851E+03   1.2500000000E+02  0.  0
       25    1    1    2    0    0   1.1880316926E+02   4.1203395054E+01   1.3172508743E+03   1.3291300835E+03   1.2500000000E+02  0.  0
</event>
<event>
 4   0  0.3991300E-04  0.6357754E+03  0.7818609E-02  0.9833843E-01
       21   -1    0    0  502  501   0.0000000000E+00   0.0000000000E+00   5.6853905897E+01   5.6853905897E+01   0.0000000000E+00  0.  1
       21   -1    0    0  501  502   0.0000000000E+00   0.0000000000E+00  -1.7774078914E+03   1.7774078914E+03   0.0000000000E+00  0.  1
       25    1    1    2    0    0  -2.3049204032E+02   1.4966169846E+02  -5.7318086533E+02   6.4783216115E+02   1.2500000000E+02  0.  0
       25    1    1    2    0    0   2.3049204032E+02  -1.4966169846E+02  -1.1473731202E+03   1.1864296361E+03   1.2500000000E+02  0.  0
</event>
<event>
 4   0  0.3991300E-04  0.1030900E+04  0.7818609E-02  0.9275289E-01
       21   -1    0    0  502  501   0.0000000000E+00   0.0000000000E+00   4.3440292054E+02   4.3440292054E+02   0.0000000000E+00  0. -1
       21   -1    0    0  501  502   0.0000000000E+00   0.0000000000E+00  -6.1161802325E+02   6.1161802325E+02   0.0000000000E+00  0. -1
       25    1    1    2    0    0   4.2360320704E+02  -3.4390392669E+01  -3.5598990134E+02   5.6830993831E+02   1.2500000000E+02  0.  0
       25    1    1    2    0    0  -4.2360320704E+02   3.4390392669E+01   1.7877479863E+02   4.7771100547E+02   1.2500000000E+02  0.  0
</event>
<event>
 4   0  0.3991300E-04  0.3996766E+03  0.7818609E-02  0.1043892E+00
       21   -1    0    0  502  501   0.0000000000E+00   0.0000000000E+00   2.0641287405E+03   2.0641287405E+03   0.0000000000E+00  0. -1
       21   -1    0    0  501  502   0.0000000000E+00   0.0000000000E+00  -1.9347313324E+01   1.9347313324E+01   0.0000000000E+00  0. -1
       25    1    1    2    0    0  -2.0037834418E+01  -2.4900741950E+01   2.2686687431E+02   2.6098877450E+02   1.2500000000E+02  0.  0
       25    1    1    2    0    0   2.0037834418E+01   2.4900741950E+01   1.8179145529E+03   1.8224872793E+03   1.2500000000E+02  0.  0
</event>
<event>
 4   0  0.3991300E-04  0.5024349E+03  0.7818609E-02  0.1013145E+00
       21   -1    0    0  502  501   0.0000000000E+00   0.0000000000E+00   3.0528934062E+01   3.0528934062E+01   0.0000000000E+00  0.  1
       21   -1    0    0  501  502   0.0000000000E+00   0.0000000000E+00  -2.0672263444E+03   2.0672263444E+03   0.0000000000E+00  0.  1
       25    1    1    2    0    0   1.8707220063E+02   2.8488940658E+01  -5.6716689777E+02   6.1082805921E+02   1.2500000000E+02  0.  0
       25    1    1    2    0    0  -1.8707220063E+02  -2.8488940658E+01  -1.4695305125E+03   1.4869272192E+03   1.2500000000E+02  0.  0
</event>
<event>
 4   0  0.3991300E-04  0.4191224E+03  0.7818609E-02  0.1037352E+00
       21   -1    0    0  502  501   0.0000000000E+00   0.0000000000E+00   1.4542763770E+04   1.4542763770E+04   0.0000000000E+00  0.  1
       21   -1    0    0  501  502   0.0000000000E+00   0.0000000000E+00  -3.0197759929E+00   3.0197759929E+00   0.0000000000E+00  0.  1
       25    1    1    2    0    0   4.1816098993E+01  -1.1127188387E+02   1.1399788427E+04   1.1401093421E+04   1.2500000000E+02  0.  0
       25    1    1    2    0    0  -4.1816098993E+01   1.1127188387E+02   3.1399555675E+03   3.1446901253E+03   1.2500000000E+02  0.  0
</event>
<event>
 4   0  0.3991300E-04  0.4605584E+03  0.7818609E-02  0.1024619E+00
       21   -1    0    0  502  501   0.0000000000E+00   0.0000000000E+00   9.5101683442E+01   9.5101683442E+01   0.0000000000E+00  0. -1
       21   -1    0    0  501  502   0.0000000000E+00   0.0000000000E+00  -5.5759810174E+02   5.5759810174E+02   0.0000000000E+00  0. -1
       25    1    1    2    0    0  -2.4479890940E+01  -1.1750825053E+01   4.0121587661E+01   1.3406001919E+02   1.2500000000E+02  0.  0
       25    1    1    2    0    0   2.4479890940E+01   1.1750825053E+01  -5.0261800596E+02   5.1863976599E+02   1.2500000000E+02  0.  0
</event>
<event>
 4   0  0.3991300E-04  0.3932548E+03  0.7818609E-02  0.1046141E+00
       21   -1    0    0  502  501   0.0000000000E+00   0.0000000000E+00   6.3252031381E+00   6.3252031381E+00   0.0000000000E+00  0.  1
       21   -1    0    0  501  502   0.0000000000E+00   0.0000000000E+00  -6.1124252642E+03   6.1124252642E+03   0.0000000000E+00  0.  1
       25    1    1    2    0    0  -8.5268171723E+01  -5.4615144524E+01  -4.8122680611E+03   4.8149561127E+03   1.2500000000E+02  0.  0
       25    1    1    2    0    0   8.5268171723E+01   5.4615144524E+01  -1.2938319999E+03   1.3037943546E+03   1.2500000000E+02  0.  0
</event>
<event>
 4   0  0.3991300E-04  0.5063340E+03  0.7818609E-02  0.1012139E+00
       21   -1    0    0  502  501   0.0000000000E+00   0.0000000000E+00   2.6564750160E+01   2.6564750160E+01   0.0000000000E+00  0.  1
       21   -1    0    0  501  502   0.0000000000E+00   0.0000000000E+00  -2.4127286449E+03   2.4127286449E+03   0.0000000000E+00  0.  1
       25    1    1    2    0    0   2.3610191163E+01   1.2661428525E+01  -1.4035152255E+02   1.8984547079E+02   1.2500000000E+02  0.  0
       25    1    1    2    0    0  -2.3610191163E+01  -1.2661428525E+01  -2.2458123722E+03   2.2494479242E+03   1.2500000000E+02  0.  0
</event>
<event>
 4   0  0.3991300E-04  0.4727000E+03  0.7818609E-02  0.1021161E+00
       21   -1    0    0  502  501   0.0000000000E+00   0.0000000000E+00   2.1287355874E+01   2.1287355874E+01   0.0000000000E+00  0. -1
       21   -1    0    0  501  502   0.0000000000E+00   0.0000000000E+00  -2.6241552875E+03   2.6241552875E+03   0.0000000000E+00  0. -1
       25    1    1    2    0    0   5.2475994057E+01  -7.5262437079E+01  -3.0315877066E+02   3.4051197426E+02   1.2500000000E+02  0.  0
       25    1    1    2    0    0  -5.2475994057E+01   7.5262437079E+01  -2.2997091610E+03   2.3049306691E+03   1.2500000000E+02  0.  0
</event>
<event>
 4   0  0.3991300E-04  0.4950558E+03  0.7818609E-02  0.1015078E+00
       21   -1    0    0  502  501   0.0000000000E+00   0.0000000000E+00   4.2889375414E+00   4.2889375414E+00   0.0000000000E+00  0. -1
       21   -1    0    0  501  502   0.0000000000E+00   0.0000000000E+00  -1.4285604775E+04   1.4285604775E+04   0.0000000000E+00  0. -1
       25    1    1    2    0    0   1.6683636523E+02   1.2726470520E+02  -8.3004466291E+03   8.3040393737E+03   1.2500000000E+02  0.  0
       25    1    1    2    0    0  -1.6683636523E+02  -1.2726470520E+02  -5.9808692083E+03   5.9858543387E+03   1.2500000000E+02  0.  0
</event>
<event>
 4   0  0.3991300E-04  0.4618511E+03  0.7818609E-02  0.1024246E+00
       21   -1    0    0  502  501   0.0000000000E+00   0.0000000000E+00   7.5598308235E+01   7.5598308235E+01   0.0000000000E+00  0. -1
       21   -1    0    0  501  502   0.0000000000E+00   0.0000000000E+00  -7.0539430072E+02   7.0539430072E+02   0.0000000000E+00  0. -1
       25    1    1    2    0    0   1.1588648727E+02   5.7481444355E+00  -5.1628016332E+01   1.7819419510E+02   1.2500000000E+02  0.  0
       25    1    1    2    0    0  -1.1588648727E+02  -5.7481444355E+00  -5.7816797615E+02   6.0279841385E+02   1.2500000000E+02  0.  0
</event>
<event>
 4   0  0.3991300E-04  0.3231318E+03  0.7818609E-02  0.1074217E+00
       21   -1    0    0  502  501   0.0000000000E+00   0.0000000000E+00   9.6967836002E+00   9.6967836002E+00   0.0000000000E+00  0. -1
       21   -1    0    0  501  502   0.0000000000E+00   0.0000000000E+00  -2.6919799870E+03   2.6919799870E+03   0.0000000000E+00  0. -1
       25    1    1    2    0    0   2.8891833078E+00   3.8885556249E+01  -5.4980380644E+02   5.6518108553E+02   1.2500000000E+02  0.  0
       25    1    1    2    0    0  -2.8891833078E+00  -3.8885556249E+01  -2.1324793969E+03   2.1364956851E+03   1.2500000000E+02  0.  0
</event>
<event>
 4   0  0.3991300E-04  0.7675937E+03  0.7818609E-02  0.9608146E-01
       21   -1    0    0  502  501   0.0000000000E+00   0.0000000000E+00   2.5121030593E+02   2.5121030593E+02   0.0000000000E+00  0. -1
       21   -1    0    0  501  502   0.0000000000E+00   0.0000000000E+00  -5.8636144636E+02   5.8636144636E+02   0.0000000000E+00  0.  1
       25    1    1    2    0    0   2.1457894155E+02  -2.1560802431E+02   4.8310057371E+01   3.3240006611E+02   1.2500000000E+02  0.  0
       25    1    1    2    0    0  -2.1457894155E+02   2.1560802431E+02  -3.8346119780E+02   5.0517168618E+02   1.2500000000E+02  0.  0
</event>
<event>
 4   0  0.3991300E-04  0.4552414E+03  0.7818609E-02  0.1026170E+00
       21   -1    0    0  502  501   0.0000000000E+00   0.0000000000E+00   2.7424752949E+02   2.7424752949E+02   0.0000000000E+00  0.  1
       21   -1    0    0  501  502   0.0000000000E+00   0.0000000000E+00  -1.8892125173E+02   1.8892125173E+02   0.0000000000E+00  0.  1
       25    1    1    2    0    0  -1.2115764854E+02  -8.2433662050E+01   1.6606706457E+02   2.5431821479E+02   1.2500000000E+02  0.  0
       25    1    1    2    0    0   1.2115764854E+02   8.2433662050E+01  -8.0740786819E+01   2.0885056642E+02   1.2500000000E+02  0.  0
</event>
<event>
 4   0  0.3991300E-04  0.4363371E+03  0.7818609E-02  0.1031877E+00
       21   -1    0    0  502  501   0.0000000000E+00   0.0000000000E+00   1.1225522987E+03   1.1225522987E+03   0.0000000000E+00  0.  1
       21   -1    0    0  501  502   0.0000000000E+00   0.0000000000E+00  -4.2401152910E+01   4.2401152910E+01   0.0000000000E+00  0.  1
       25    1    1    2    0    0   1.1632207265E+02   1.2723136632E+02   6.6682632566E+02   7.0000070982E+02   1.2500000000E+02  0.  0
       25    1    1    2    0    0  -1.1632207265E+02  -1.2723136632E+02   4.1332482016E+02   4.6495274181E+02   1.2500000000E+02  0.  0
</event>
<event>
 4   0  0.3991300E-04  0.5932218E+03  0.7818609E-02  0.9919569E-01
       21   -1    0    0  502  501   0.0000000000E+00   0.0000000000E+00   5.9774885426E+01   5.9774885426E+01   0.0000000000E+00  0. -1
       21   -1    0    0  501  502   0.0000000000E+00   0.0000000000E+00  -1.4718227944E+03   1.4718227944E+03   0.0000000000E+00  0. -1
       25    1    1    2    0    0   1.2945197840E+01   3.4312722147E+01  -1.3940129713E+03   1.4000864634E+03   1.2500000000E+02  0.  0
       25    1    1    2    0    0  -1.2945197840E+01  -3.4312722147E+01  -1.8034937667E+01   1.3151121635E+02   1.2500000000E+02  0.  0
</event>
<event>
 4   0  0.3991300E-04  0.4173881E+03  0.7818609E-02  0.1037920E+00
       21   -1    0    0  502  501   0.0000000000E+00   0.0000000000E+00   4.4788929357E+02   4.4788929357E+02   0.0000000000E+00  0.  1
       21   -1    0    0  501  502   0.0000000000E+00   0.0000000000E+00  -9.7241008491E+01   9.7241008491E+01   0.0000000000E+00  0.  1
       25    1    1    2    0    0  -1.4175540947E+02  -8.6372879540E+01   1.5008873684E+02   2.5633279026E+02   1.2500000000E+02  0.  0
       25    1    1    2    0    0   1.4175540947E+02   8.6372879540E+01   2.0055954824E+02   2.8879751180E+02   1.2500000000E+02  0.  0
</event>
<event>
 4   0  0.3991300E-04  0.6256445E+03  0.7818609E-02  0.9853585E-01
       21   -1    0    0  502  501   0.0000000000E+00   0.0000000000E+00   1.0755551463E+02   1.0755551463E+02   0.0000000000E+00  0. -1
       21   -1    0    0  501  502   0.0000000000E+00   0.0000000000E+00  -9.0983499159E+02   9.0983499159E+02   0.0000000000E+00  0. -1
       25    1    1    2    0    0  -2.2502913001E+02   1.5772083941E+02  -2.6784720434E+02   4.0358530376E+02   1.2500000000E+02  0.  0
       25    1    1    2    0    0   2.2502913001E+02  -1.5772083941E+02  -5.3443227262E+02   6.1380520245E+02   1.2500000000E+02  0.  0
</event>
<event>
 4   0  0.3991300E-04  0.4435844E+03  0.7818609E-02  0.1029653E+00
       21   -1    0    0  502  501   0.0000000000E+00   0.0000000000E+00   2.7130359425E+02   2.7130359425E+02   0.0000000000E+00  0. -1
       21   -1    0    0  501  502   0.0000000000E+00   0.0000000000E+00  -1.8131635978E+02   1.8131635978E+02   0.0000000000E+00  0. -1
       25    1    1    2    0    0   1.6830921246E+02   6.2566701380E+01   7.8628666393E+00   2.1892785979E+02   1.2500000000E+02  0.  0
       25    1    1    2    0    0  -1.6830921246E+02  -6.2566701380E+01   8.2124367824E+01   2.3369209424E+02   1.2500000000E+02  0.  0
</event>
<event>
 4   0  0.3991300E-04  0.4770339E+03  0.7818609E-02  0.1019954E+00
       21   -1    0    0  502  501   0.0000000000E+00   0.0000000000E+00   2.2570677913E+03   2.2570677913E+03   0.0000000000E+00  0. -1
       21   -1    0    0  501  502   0.0000000000E+00   0.0000000000E+00  -2.5205419850E+01   2.5205419850E+01   0.0000000000E+00  0. -1
       25    1    1    2    0    0  -2.0053757042E+02  -2.7103534485E+01   1.0309613546E+03   1.0580435876E+03   1.2500000000E+02  0.  0
       25    1    1    2    0    0   2.0053757042E+02   2.7103534485E+01   1.2009010169E+03   1.2242296236E+03   1.2500000000E+02  0.  0
</event>
<event>
 4   0  0.3991300E-04  0.5322667E+03  0.7818609E-02  0.1005684E+00
       21   -1    0    0  502  501   0.0000000000E+00   0.0000000000E+00   3.4033389074E+02   3.4033389074E+02   0.0000000000E+00  0.  1
       21   -1    0    0  501  502   0.0000000000E+00   0.0000000000E+00  -2.0811019960E+02   2.0811019960E+02   0.0000000000E+00  0.  1
       25    1    1    2    0    0  -1.2577223997E+02  -1.7153574146E+02   1.6893864182E+02   2.9901242725E+02   1.2500000000E+02  0.  0
       25    1    1    2    0    0   1.2577223997E+02   1.7153574146E+02  -3.6714950686E+01   2.4943166309E+02   1.2500000000E+02  0.  0
</event>
<event>
 4   0  0.3991300E-04  0.4242455E+03  0.7818609E-02  0.1035693E+00
       21   -1    0    0  502  501   0.0000000000E+00   0.0000000000E+00   1.2338783952E+03   1.2338783952E+03   0.0000000000E+00  0.  1
       21   -1    0    0  501  502   0.0000000000E+00   0.0000000000E+00  -3.6467177682E+01   3.6467177682E+01   0.0000000000E+00  0.  1
       25    1    1    2    0    0  -3.8991330871E+01  -3.0263020896E+01   1.0727498516E+02   1.7195667116E+02   1.2500000000E+02  0.  0
       25    1    1    2    0    0   3.8991330871E+01   3.0263020896E+01   1.0901362324E+03   1.0983889018E+03   1.2500000000E+02  0.  0
</event>
<event>
 4   0  0.3991300E-04  0.3721282E+03  0.7818609E-02  0.1053882E+00
       21   -1    0    0  502  501   0.0000000000E+00   0.0000000000E+00   1.3547119862E+01   1.3547119863E+01   0.0000000000E+00  0. -1
       21   -1    0    0  501  502   0.0000000000E+00   0.0000000000E+00  -2.5555137827E+03   2.5555137827E+03   0.0000000000E+00  0. -1
       25    1    1    2    0    0  -4.2652223801E+01  -1.2372930454E+02  -1.5692597336E+03   1.5796611233E+03   1.2500000000E+02  0.  0
       25    1    1    2    0    0   4.2652223801E+01   1.2372930454E+02  -9.7270692920E+02   9.8939977922E+02   1.2500000000E+02  0.  0
</event>
<event>
 4   0  0.3991300E-04  0.7035659E+03  0.7818609E-02  0.9711153E-01
       21   -1    0    0  502  501   0.0000000000E+00   0.0000000000E+00   8.2149157519E+02   8.2149157519E+02   0.0000000000E+00  0.  1
       21   -1    0    0  501  502   0.0000000000E+00   0.0000000000E+00  -1.5064211696E+02   1.5064211696E+02   0.0000000000E+00  0.  1
       25    1    1    2    0    0  -1.0844569176E+02   2.4139609394E+02   6.0510411224E+02   6.7216703942E+02   1.2500000000E+02  0.  0
       25    1    1    2    0    0   1.0844569176E+02  -2.4139609394E+02   6.5745345994E+01   2.9996665273E+02   1.2500000000E+02  0.  0
</event>
<event>
 4   0  0.3991300E-04  0.4671935E+03  0.7818609E-02  0.1022715E+00
       21   -1    0    0  502  501   0.0000000000E+00   0.0000000000E+00   1.8625465974E+02   1.8625465974E+02   0.0000000000E+00  0.  1
       21   -1    0    0  501  502   0.0000000000E+00   0.0000000000E+00  -2.9297226355E+02   2.9297226355E+02   0.0000000000E+00  0. -1
       25    1    1    2    0    0  -1.7931733490E+02   5.8014467118E+01   6.6463400469E+00   2.2625109685E+02   1.2500000000E+02  0.  0
       25    1    1    2    0    0   1.7931733490E+02  -5.8014467118E+01  -1.1336394385E+02   2.5297582643E+02   1.2500000000E+02  0.  0
</event>
<event>
 4   0  0.3991300E-04  0.5605877E+03  0.7818609E-02  0.9990726E-01
       21   -1    0    0  502  501   0.0000000000E+00   0.0000000000E+00   2.6213638263E+02   2.6213638263E+02   0.0000000000E+00  0. -1
       21   -1    0    0  501  502   0.0000000000E+00   0.0000000000E+00  -2.9970901376E+02   2.9970901376E+02   0.0000000000E+00  0. -1
       25    1    1    2    0    0   2.0491233897E+02  -1.2566850771E+02   5.3194006806E+01   2.7610911404E+02   1.2500000000E+02  0.  0
       25    1    1    2    0    0  -2.0491233897E+02   1.2566850771E+02  -9.0766637938E+01   2.8573628236E+02   1.2500000000E+02  0.  0
</event>
<event>
 4   0  0.3991300E-04  0.3525917E+03  0.7818609E-02  0.1061556E+00
       21   -1    0    0  502  501   0.0000000000E+00   0.0000000000E+00   7.6792622415E+01   7.6792622415E+01   0.0000000000E+00  0. -1
       21   -1    0    0  501  502   0.0000000000E+00   0.0000000000E+00  -4.0472932851E+02   4.0472932851E+02   0.0000000000E+00  0. -1
       25    1    1    2    0    0   1.1151679044E+02  -1.6817463560E+01  -2.3540715856E+02   2.8941380743E+02   1.2500000000E+02  0.  0
       25    1    1    2    0    0  -1.1151679044E+02   1.6817463560E+01  -9.2529547532E+01   1.9210814349E+02   1.2500000000E+02  0.  0
</event>
<event>
 4   0  0.3991300E-04  0.5454069E+03  0.7818609E-02  0.1002563E+00
       21   -1    0    0  502  501   0.0000000000E+00   0.0000000000E+00   9.7887951254E+00   9.7887951254E+00   0.0000000000E+00  0. -1
       21   -1    0    0  501  502   0.0000000000E+00   0.0000000000E+00  -7.5971737720E+03   7.5971737720E+03   0.0000000000E+00  0. -1
       25    1    1    2    0    0  -2.2227282174E+02   9.6229357355E+01  -3.9159851452E+03   3.9254592029E+03   1.2500000000E+02  0.  0
       25    1    1    2    0    0   2.2227282174E+02  -9.6229357355E+01  -3.6713998317E+03   3.6815033642E+03   1.2500000000E+02  0.  0
</event>
<event>
 4   0  0.3991300E-04  0.3692355E+03  0.7818609E-02  0.1054986E+00
       21   -1    0    0  502  501   0.0000000000E+00   0.0000000000E+00   1.1505276301E+02   1.1505276301E+02   0.0000000000E+00  0.  1
       21   -1    0    0  501  502   0.0000000000E+00   0.0000000000E+00  -2.9624414809E+02   2.9624414809E+02   0.0000000000E+00  0.  1
       25    1    1    2    0    0  -3.3551411908E+01   1.2628631650E+02  -1.3204735216E+02   2.2390943301E+02   1.2500000000E+02  0.  0
       25    1    1    2    0    0   3.3551411908E+01  -1.2628631650E+02  -4.9144032908E+01   1.8738747809E+02   1.2500000000E+02  0.  0
</event>
<event>
 4   0  0.3991300E-04  0.4866391E+03  0.7818609E-02  0.1017326E+00
       21   -1    0    0  502  501   0.0000000000E+00   0.0000000000E+00   1.4062044295E+03   1.4062044295E+03   0.0000000000E+00  0. -1
       21   -1    0    0  501  502   0.0000000000E+00   0.0000000000E+00  -4.2102271291E+01   4.2102271291E+01   0.0000000000E+00  0. -1
       25    1    1    2    0    0   1.1558365857E+02  -1.3667751747E+02   3.6235372718E+02   4.2304320053E+02   1.2500000000E+02  0.  0
       25    1    1    2    0    0  -1.1558365857E+02   1.3667751747E+02   1.0017484310E+03   1.0252635003E+03   1.2500000000E+02  0.  0
</event>
<event>
 4   0  0.3991300E-04  0.3116907E+03  0.7818609E-02  0.1079538E+00
       21   -1    0    0  502  501   0.0000000000E+00   0.0000000000E+00   1.8916070839E+01   1.8916070839E+01   0.0000000000E+00  0.  1
       21   -1    0    0  501  502   0.0000000000E+00   0.0000000000E+00  -1.2839756788E+03   1.2839756788E+03   0.0000000000E+00  0.  1
       25    1    1    2    0    0  -1.6564689119E+01   7.9641467364E+01  -8.2158875117E+02   8.3501510663E+02   1.2500000000E+02  0.  0
       25    1    1    2    0    0   1.6564689119E+01  -7.9641467364E+01  -4.4347085675E+02   4.6787664297E+02   1.2500000000E+02  0.  0
</event>
<event>
 4   0  0.3991300E-04  0.4811344E+03  0.7818609E-02  0.1018824E+00
       21   -1    0    0  502  501   0.0000000000E+00   0.0000000000E+00   8.8152984312E+03   8.8152984312E+03   0.0000000000E+00  0.  1
       21   -1    0    0  501  502   0.0000000000E+00   0.0000000000E+00  -6.5650165759E+00   6.5650165759E+00   0.0000000000E+00  0.  1
       25    1    1    2    0    0  -8.1482132960E+01   1.6199989551E+01   7.8515377790E+03   7.8529721935E+03   1.2500000000E+02  0.  0
       25    1    1    2    0    0   8.1482132960E+01  -1.6199989551E+01   9.5719563570E+02   9.6889125429E+02   1.2500000000E+02  0.  0
</event>
<event>
 4   0  0.3991300E-04  0.4433311E+03  0.7818609E-02  0.1029730E+00
       21   -1    0    0  502  501   0.0000000000E+00   0.0000000000E+00   4.9884153593E+02   4.9884153593E+02   0.0000000000E+00  0. -1
       21   -1    0    0  501  502   0.0000000000E+00   0.0000000000E+00  -9.8499437643E+01   9.8499437643E+01   0.0000000000E+00  0. -1
       25    1    1    2    0    0   1.2545009264E+02   7.5639523743E+01   5.2254918268E+01   1.9953606135E+02   1.2500000000E+02  0.  0
       25    1    1    2    0    0  -1.2545009264E+02  -7.5639523743E+01   3.4808718002E+02   3.9780491223E+02   1.2500000000E+02  0.  0
</event>
<event>
 4   0  0.3991300E-04  0.3050766E+03  0.7818609E-02  0.1082730E+00
       21   -1    0    0  502  501   0.0000000000E+00   0.0000000000E+00   5.1096983771E+02   5.1096983771E+02   0.0000000000E+00  0. -1
       21   -1    0    0  501  502   0.0000000000E+00   0.0000000000E+00  -4.5536809236E+01   4.5536809236E+01   0.0000000000E+00  0. -1
       25    1    1    2    0    0  -2.1723406862E+01   7.5656910491E+01   3.0210779868E+02   3.3628856140E+02   1.2500000000E+02  0.  0
       25    1    1    2    0    0   2.1723406862E+01  -7.5656910491E+01   1.6332522980E+02   2.2021808554E+02   1.2500000000E+02  0.  0
</event>
<event>
 4   0  0.3991300E-04  0.5288325E+03  0.7818609E-02  0.1006516E+00
       21   -1    0    0  502  501   0.0000000000E+00   0.0000000000E+00   9.6533294380E+02   9.6533294380E+02   0.0000000000E+00  0. -1
       21   -1    0    0  501  502   0.0000000000E+00   0.0000000000E+00  -7.2426781978E+01   7.2426781978E+01   0.0000000000E+00  0. -1
       25    1    1    2    0    0  -1.3751257507E+02   1.5341205996E+02   6.6003493037E+02   7.0264932772E+02   1.2500000000E+02  0.  0
       25    1    1    2    0    0   1.3751257507E+02  -1.5341205996E+02   2.3287123145E+02   3.3511039805E+02   1.2500000000E+02  0.  0
</event>
<event>
 4   0  0.3991300E-04  0.3734501E+03  0.7818609E-02  0.1053382E+00
       21   -1    0    0  502  501   0.0000000000E+00   0.0000000000E+00   1.6186233018E+01   1.6186233018E+01   0.0000000000E+00  0. -1
       21   -1    0    0  501  502   0.0000000000E+00   0.0000000000E+00  -2.1540676145E+03   2.1540676145E+03   0.0000000000E+00  0. -1
       25    1    1    2    0    0   4.1404565144E+01  -1.2084193801E+02  -1.3831913482E+03   1.3946900795E+03   1.2500000000E+02  0.  0
       25    1    1    2    0    0  -4.1404565144E+01   1.2084193801E+02  -7.5469003328E+02   7.7556376806E+02   1.2500000000E+02  0.  0
</event>
<event>
 4   0  0.3991300E-04  0.1129986E+04  0.7818609E-02  0.9176448E-01
       21   -1    0    0  502  501   0.0000000000E+00   0.0000000000E+00   1.2614203851E+03   1.2614203851E+03   0.0000000000E+00  0. -1
       21   -1    0    0  501  502   0.0000000000E+00   0.0000000000E+00  -2.5306169329E+02   2.5306169329E+02   0.0000000000E+00  0.  1
       25    1    1    2    0    0  -3.9617702451E+02   3.8197586375E+02   5.4040084778E+02   7.8135771035E+02   1.2500000000E+02  0.  0
       25    1    1    2    0    0   3.9617702451E+02  -3.8197586375E+02   4.6795784407E+02   7.3312436808E+02   1.2500000000E+02  0.  0
</event>
<event>
 4   0  0.3991300E-04  0.5105689E+03  0.7818609E-02  0.1011057E+00
       21   -1    0    0  502  501   0.0000000000E+00   0.0000000000E+00   4.4419286654E+01   4.4419286654E+01   0.0000000000E+00  0.  1
       21   -1    0    0  501  502   0.0000000000E+00   0.0000000000E+00  -1.4671586384E+03   1.4671586384E+03   0.0000000000E+00  0.  1
       25    1    1    2    0    0   1.9572775943E+02  -5.1483108435E-01  -3.9755533082E+02   4.6041813814E+02   1.2500000000E+02  0.  0
       25    1    1    2    0    0  -1.9572775943E+02   5.1483108435E-01  -1.0251840210E+03   1.0511597869E+03   1.2500000000E+02  0.  0
</event>
<event>
 4   0  0.3991300E-04  0.6123310E+03  0.7818609E-02  0.9880148E-01
       21   -1    0    0  502  501   0.0000000000E+00   0.0000000000E+00   3.8671014046E+03   3.8671014046E+03   0.0000000000E+00  0.  1
       21   -1    0    0  501  502   0.0000000000E+00   0.0000000000E+00  -2.4239679395E+01   2.4239679395E+01   0.0000000000E+00  0. -1
       25    1    1    2    0    0   2.1025499398E+02   3.6582546358E+01   7.7459574029E+02   8.1312299566E+02   1.2500000000E+02  0.  0
       25    1    1    2    0    0  -2.1025499398E+02  -3.6582546358E+01   3.0682659849E+03   3.0782180884E+03   1.2500000000E+02  0.  0
</event>
<event>
 4   0  0.3991300E-04  0.4157845E+03  0.7818609E-02  0.1038447E+00
       21   -1    0    0  502  501   0.0000000000E+00   0.0000000000E+00   2.2360679107E+01   2.2360679107E+01   0.0000000000E+00  0. -1
       21   -1    0    0  501  502   0.0000000000E+00   0.0000000000E+00  -1.9328205046E+03   1.9328205046E+03   0.0000000000E+00  0. -1
       25    1    1    2    0    0  -1.5079931291E+02  -2.8656472832E+01  -6.5661685724E+02   6.8580778898E+02   1.2500000000E+02  0.  0
       25    1    1    2    0    0   1.5079931291E+02   2.8656472832E+01  -1.2538429682E+03   1.2693733947E+03   1.2500000000E+02  0.  0
</event>
<event>
 4   0  0.3991300E-04  0.3394929E+03  0.7818609E-02  0.1067012E+00
       21   -1    0    0  502  501   0.0000000000E+00   0.0000000000E+00   3.1540753643E+03   3.1540753643E+03   0.0000000000E+00  0. -1
       21   -1    0    0  501  502   0.0000000000E+00   0.0000000000E+00  -9.1354368037E+00   9.1354368037E+00   0.0000000000E+00  0. -1
       25    1    1    2    0    0  -9.0860879667E+01  -9.0948671820E+00   2.2213852731E+03   2.2267725406E+03   1.2500000000E+02  0.  0
       25    1    1    2    0    0   9.0860879667E+01   9.0948671820E+00   9.2355465443E+02   9.3643826053E+02   1.2500000000E+02  0.  0
</event>
<event>
 4   0  0.3991300E-04  0.3721321E+03  0.7818609E-02  0.1053881E+00
       21   -1    0    0  502  501   0.0000000000E+00   0.0000000000E+00   3.0665317845E+03   3.0665317845E+03   0.0000000000E+00  0. -1
       21   -1    0    0  501  502   0.0000000000E+00   0.0000000000E+00  -1.1289812935E+01   1.1289812935E+01   0.0000000000E+00  0. -1
       25    1    1    2    0    0  -5.0092541599E+00   1.2935533669E+02   1.1363795983E+03   1.1505396504E+03   1.2500000000E+02  0.  0
       25    1    1    2    0    0   5.0092541599E+00  -1.2935533669E+02   1.9188623733E+03   1.9272819470E+03   1.2500000000E+02  0.  0
</event>
<event>
 4   0  0.3991300E-04  0.4197390E+03  0.7818609E-02  0.1037151E+00
       21   -1    0    0  502  501   0.0000000000E+00   0.0000000000E+00   1.4581698833E+02   1.4581698833E+02   0.0000000000E+00  0.  1
       21   -1    0    0  501  502   0.0000000000E+00   0.0000000000E+00  -3.0205819314E+02   3.0205819314E+02   0.0000000000E+00  0.  1
       25    1    1    2    0    0  -3.0568864209E+01   5.8661436433E+01  -2.4357807096E+02   2.8165740934E+02   1.2500000000E+02  0.  0
       25    1    1    2    0    0   3.0568864209E+01  -5.8661436433E+01   8.7336866153E+01   1.6621777213E+02   1.2500000000E+02  0.  0
</event>
<event>
 4   0  0.3991300E-04  0.5217619E+03  0.7818609E-02  0.1008250E+00
       21   -1    0    0  502  501   0.0000000000E+00   0.0000000000E+00   1.6612148767E+02   1.6612148767E+02   0.0000000000E+00  0.  1
       21   -1    0    0  501  502   0.0000000000E+00   0.0000000000E+00  -4.0969338878E+02   4.0969338878E+02   0.0000000000E+00  0.  1
       25    1    1    2    0    0   4.7425397044E+01   1.6002897177E+02  -2.9479192847E+02   3.6108963040E+02   1.2500000000E+02  0.  0
       25    1    1    2    0    0  -4.7425397044E+01  -1.6002897177E+02   5.1220027367E+01   2.1472524605E+02   1.2500000000E+02  0.  0
</event>
<event>
 4   0  0.3991300E-04  0.4515992E+03  0.7818609E-02  0.1027246E+00
       21   -1    0    0  502  501   0.0000000000E+00   0.0000000000E+00   1.8153705191E+03   1.8153705191E+03   0.0000000000E+00  0.  1
       21   -1    0    0  501  502   0.0000000000E+00   0.0000000000E+00  -2.8085424211E+01   2.8085424211E+01   0.0000000000E+00  0.  1
       25    1    1    2    0    0   1.0567225536E+02  -1.5273324970E+02   1.0137953337E+03   1.0382196539E+03   1.2500000000E+02  0.  0
       25    1    1    2    0    0  -1.0567225536E+02   1.5273324970E+02   7.7348976116E+02   8.0523628938E+02   1.2500000000E+02  0.  0
</event>
<event>
 4   0  0.3991300E-04  0.3978018E+03  0.7818609E-02  0.1044543E+00
       21   -1    0    0  502  501   0.0000000000E+00   0.0000000000E+00   7.1302068570E+02   7.1302068570E+02   0.0000000000E+00  0. -1
       21   -1    0    0  501  502   0.0000000000E+00   0.0000000000E+00  -5.5484471488E+01   5.5484471488E+01   0.0000000000E+00  0. -1
       25    1    1    2    0    0  -1.5274552784E+02   1.2809652599E+01   3.6935102215E+02   4.1897548978E+02   1.2500000000E+02  0.  0
       25    1    1    2    0    0   1.5274552784E+02  -1.2809652599E+01   2.8818519206E+02   3.4952966740E+02   1.2500000000E+02  0.  0
</event>
<event>
 4   0  0.3991300E-04  0.5571435E+03  0.7818609E-02  0.9998539E-01
       21   -1    0    0  502  501   0.0000000000E+00   0.0000000000E+00   2.1209308335E+02   2.1209308335E+02   0.0000000000E+00  0. -1
       21   -1    0    0  501  502   0.0000000000E+00   0.0000000000E+00  -3.6588756568E+02   3.6588756568E+02   0.0000000000E+00  0. -1
       25    1    1    2    0    0  -6.7111461520E+01   1.1133051800E+02  -2.9715557364E+02   3.4759871613E+02   1.2500000000E+02  0.  0
       25    1    1    2    0    0   6.7111461520E+01  -1.1133051800E+02   1.4336109131E+02   2.3038193290E+02   1.2500000000E+02  0.  0
</event>
<event>
 4   0  0.3991300E-04  0.4853656E+03  0.7818609E-02  0.1017671E+00
       21   -1    0    0  502  501   0.0000000000E+00   0.0000000000E+00   1.7751880964E+02   1.7751880964E+02   0.0000000000E+00  0.  1
       21   -1    0    0  501  502   0.0000000000E+00   0.0000000000E+00  -3.3176726607E+02   3.3176726607E+02   0.0000000000E+00  0.  1
       25    1    1    2    0    0   1.9027199747E+02   7.3428556009E+01  -1.2006472889E+02   2.6764851014E+02   1.2500000000E+02  0.  0
       25    1    1    2    0    0  -1.9027199747E+02  -7.3428556009E+01  -3.4183727543E+01   2.4163756556E+02   1.2500000000E+02  0.  0
</event>
<event>
 4   0  0.3991300E-04  0.3795113E+03  0.7818609E-02  0.1051115E+00
       21   -1    0    0  502  501   0.0000000000E+00   0.0000000000E+00   1.6638599649E+04   1.6638599649E+04   0.0000000000E+00  0.  1
       21   -1    0    0  501  502   0.0000000000E+00   0.0000000000E+00  -2.1640763558E+00   2.1640763558E+00   0.0000000000E+00  0.  1
       25    1    1    2    0    0  -6.8956173526E+01   1.1512777167E+02   1.0454128190E+04   1.0455736730E+04   1.2500000000E+02  0.  0
       25    1    1    2    0    0   6.8956173526E+01  -1.1512777167E+02   6.1823073826E+03   6.1850269951E+03   1.2500000000E+02  0.  0
</event>
<event>
 4   0  0.3991300E-04  0.4188565E+03  0.7818609E-02  0.1037439E+00
       21   -1    0    0  502  501   0.0000000000E+00   0.0000000000E+00   2.8402745099E+02   2.8402745099E+02   0.0000000000E+00  0.  1
       21   -1    0    0  501  502   0.0000000000E+00   0.0000000000E+00  -1.5442235181E+02   1.5442235181E+02   0.0000000000E+00  0.  1
       25    1    1    2    0    0  -1.6701238684E+02   4.9739723105E+00   4.6156107439E+01   2.1371304128E+02   1.2500000000E+02  0.  0
       25    1    1    2    0    0   1.6701238684E+02  -4.9739723105E+00   8.3448991740E+01   2.2473676152E+02   1.2500000000E+02  0.  0
</event>
<event>
 4   0  0.3991300E-04  0.4297285E+03  0.7818609E-02  0.1033946E+00
       21   -1    0    0  502  501   0.0000000000E+00   0.0000000000E+00   1.7260505285E+02   1.7260505285E+02   0.0000000000E+00  0.  1
       21   -1    0    0  501  502   0.0000000000E+00   0.0000000000E+00  -2.6746986697E+02   2.6746986697E+02   0.0000000000E+00  0.  1
       25    1    1    2    0    0   3.8545934432E+00   1.7457526444E+02  -5.4693224212E+01   2.2160263901E+02   1.2500000000E+02  0.  0
       25    1    1    2    0    0  -3.8545934432E+00  -1.7457526444E+02  -4.0171589913E+01   2.1847228080E+02   1.2500000000E+02  0.  0
</event>
<event>
 4   0  0.3991300E-04  0.4375718E+03  0.7818609E-02  0.1031494E+00
       21   -1    0    0  502  501   0.0000000000E+00   0.0000000000E+00   2.9017981718E+01   2.9017981718E+01   0.0000000000E+00  0.  1
       21   -1    0    0  501  502   0.0000000000E+00   0.0000000000E+00  -1.6495725464E+03   1.6495725464E+03   0.0000000000E+00  0.  1
       25    1    1    2    0    0  -5.2089782638E+00   8.1940391686E+01  -1.4228720113E+03   1.4307100061E+03   1.2500000000E+02  0.  0
       25    1    1    2    0    0   5.2089782638E+00  -8.1940391686E+01  -1.9768255338E+02   2.4788052194E+02   1.2500000000E+02  0.  0
</event>
<event>
 4   0  0.3991300E-04  0.4325582E+03  0.7818609E-02  0.1033055E+00
       21   -1    0    0  502  501   0.0000000000E+00   0.0000000000E+00   8.7411927188E+03   8.7411927188E+03   0.0000000000E+00  0.  1
       21   -1    0    0  501  502   0.0000000000E+00   0.0000000000E+00  -5.3512895747E+00   5.3512895747E+00   0.0000000000E+00  0.  1
       25    1    1    2    0    0   4.0884233132E+01  -1.1696410825E+02   6.9095605257E+03   6.9118017753E+03   1.2500000000E+02  0.  0
       25    1    1    2    0    0  -4.0884233132E+01   1.1696410825E+02   1.8262809036E+03   1.8347422331E+03   1.2500000000E+02  0.  0
</event>
<event>
 4   0  0.3991300E-04  0.3809014E+03  0.7818609E-02  0.1050601E+00
       21   -1    0    0  502  501   0.0000000000E+00   0.0000000000E+00   1.4144915110E+01   1.4144915110E+01   0.0000000000E+00  0.  1
       21   -1    0    0  501  502   0.0000000000E+00   0.0000000000E+00  -2.5642763624E+03   2.5642763624E+03   0.0000000000E+00  0.  1
       25    1    1    2    0    0  -1.0152539594E+02   1.1988261445E+01  -1.9585716744E+03   1.9652173234E+03   1.2500000000E+02  0.  0
       25    1    1    2    0    0   1.0152539594E+02  -1.1988261445E+01  -5.9155977288E+02   6.1320395410E+02   1.2500000000E+02  0.  0
</event>
<event>
 4   0  0.3991300E-04  0.3597267E+03  0.7818609E-02  0.1058692E+00
       21   -1    0    0  502  501   0.0000000000E+00   0.0000000000E+00   3.9285480728E+00   3.9285480728E+00   0.0000000000E+00  0. -1
       21   -1    0    0  501  502   0.0000000000E+00   0.0000000000E+00  -8.2348033433E+03   8.2348033433E+03   0.0000000000E+00  0. -1
       25    1    1    2    0    0  -8.0153020518E+01   8.7442657809E+01  -5.2955618584E+03   5.2983649479E+03   1.2500000000E+02  0.  0
       25    1    1    2    0    0   8.0153020518E+01  -8.7442657809E+01  -2.9353129369E+03   2.9403669435E+03   1.2500000000E+02  0.  0
</event>
<event>
 4   0  0.3991300E-04  0.4992953E+03  0.7818609E-02  0.1013963E+00
       21   -1    0    0  502  501   0.0000000000E+00   0.0000000000E+00   3.2087223834E+02   3.2087223834E+02   0.0000000000E+00  0. -1
       21   -1    0    0  501  502   0.0000000000E+00   0.0000000000E+00  -1.9423287926E+02   1.9423287926E+02   0.0000000000E+00  0. -1
       25    1    1    2    0    0   2.1340079937E+02   2.6691419492E+01   8.5121890856E+01   2.6291266487E+02   1.2500000000E+02  0.  0
       25    1    1    2    0    0  -2.1340079937E+02  -2.6691419492E+01   4.1517468223E+01   2.5219245273E+02   1.2500000000E+02  0.  0
</event>
<event>
 4   0  0.3991300E-04  0.3595854E+03  0.7818609E-02  0.1058748E+00
       21   -1    0    0  502  501   0.0000000000E+00   0.0000000000E+00   3.7264285678E+03   3.7264285678E+03   0.0000000000E+00  0. -1
       21   -1    0    0  501  502   0.0000000000E+00   0.0000000000E+00  -8.6746373562E+00   8.6746373562E+00   0.0000000000E+00  0. -1
       25    1    1    2    0    0   2.6371684643E+01   3.6549757286E+01   3.1169381897E+03   3.1197692269E+03   1.2500000000E+02  0.  0
       25    1    1    2    0    0  -2.6371684643E+01  -3.6549757286E+01   6.0081574072E+02   6.1533397826E+02   1.2500000000E+02  0.  0
</event>
<event>
 4   0  0.3991300E-04  0.4411866E+03  0.7818609E-02  0.1030383E+00
       21   -1    0    0  502  501   0.0000000000E+00   0.0000000000E+00   5.7127542425E+02   5.7127542425E+02   0.0000000000E+00  0.  1
       21   -1    0    0  501  502   0.0000000000E+00   0.0000000000E+00  -8.5180305263E+01   8.5180305263E+01   0.0000000000E+00  0.  1
       25    1    1    2    0    0   5.9800432189E+01  -1.5433077848E+02   1.3128084567E+02   2.4546637512E+02   1.2500000000E+02  0.  0
       25    1    1    2    0    0  -5.9800432189E+01   1.5433077848E+02   3.5481427332E+02   4.1098935440E+02   1.2500000000E+02  0.  0
</event>
<event>
 4   0  0.3991300E-04  0.6039931E+03  0.7818609E-02  0.9897156E-01
       21   -1    0    0  502  501   0.0000000000E+00   0.0000000000E+00   2.4271930336E+03   2.4271930336E+03   0.0000000000E+00  0. -1
       21   -1    0    0  501  502   0.0000000000E+00   0.0000000000E+00  -3.7575060893E+01   3.7575060893E+01   0.0000000000E+00  0. -1
       25    1    1    2    0    0  -1.9865190288E+02   1.9003715228E+02   1.1967586933E+03   1.2342743082E+03   1.2500000000E+02  0.  0
       25    1    1    2    0    0   1.9865190288E+02  -1.9003715228E+02   1.1928592794E+03   1.2304937864E+03   1.2500000000E+02  0.  0
</event>
<event>
 4   0  0.3991300E-04  0.4407651E+03  0.7818609E-02  0.1030512E+00
       21   -1    0    0  502  501   0.0000000000E+00   0.0000000000E+00   5.2351863872E+01   5.2351863872E+01   0.0000000000E+00  0.  1
       21   -1    0    0  501  502   0.0000000000E+00   0.0000000000E+00  -9.2773144913E+02   9.2773144913E+02   0.0000000000E+00  0.  1
       25    1    1    2    0    0  -1.4683370724E+02  -6.6674312829E+01  -2.5247791609E+02   3.2461623448E+02   1.2500000000E+02  0.  0
       25    1    1    2    0    0   1.4683370724E+02   6.6674312829E+01  -6.2290166917E+02   6.5546707853E+02   1.2500000000E+02  0.  0
</event>
<event>
 4   0  0.3991300E-04  0.5283453E+03  0.7818609E-02  0.1006634E+00
       21   -1    0    0  502  501   0.0000000000E+00   0.0000000000E+00   3.0694227133E+02   3.0694227133E+02   0.0000000000E+00  0.  1
       21   -1    0    0  501  502   0.0000000000E+00   0.0000000000E+00  -2.2736258580E+02   2.2736258580E+02   0.0000000000E+00  0.  1
       25    1    1    2    0    0   7.9376041666E+01  -2.1678703164E+02   6.9532735240E+01   2.7158235279E+02   1.2500000000E+02  0.  0
       25    1    1    2    0    0  -7.9376041666E+01   2.1678703164E+02   1.0046950289E+01   2.6272250434E+02   1.2500000000E+02  0.  0
</event>
<event>
 4   0  0.3991300E-04  0.4292943E+03  0.7818609E-02  0.1034083E+00
       21   -1    0    0  502  501   0.0000000000E+00   0.0000000000E+00   1.2194084406E+03   1.2194084406E+03   0.0000000000E+00  0. -1
       21   -1    0    0  501  502   0.0000000000E+00   0.0000000000E+00  -3.7783407508E+01   3.7783407508E+01   0.0000000000E+00  0. -1
       25    1    1    2    0    0  -3.1159436854E+01  -7.7724068536E+01   1.0391369944E+03   1.0499726827E+03   1.2500000000E+02  0.  0
       25    1    1    2    0    0   3.1159436854E+01   7.7724068536E+01   1.4248803871E+02   2.0721916540E+02   1.2500000000E+02  0.  0
</event>
<event>
 4   0  0.3991300E-04  0.5042344E+03  0.7818609E-02  0.1012680E+00
       21   -1    0    0  502  501   0.0000000000E+00   0.0000000000E+00   2.4088133903E+02   2.4088133903E+02   0.0000000000E+00  0. -1
       21   -1    0    0  501  502   0.0000000000E+00   0.0000000000E+00  -2.6387718522E+02   2.6387718522E+02   0.0000000000E+00  0. -1
       25    1    1    2    0    0   7.5756400044E+01  -2.0448849126E+02   8.1059582561E+00   2.5148614627E+02   1.2500000000E+02  0.  0
       25    1    1    2    0    0  -7.5756400044E+01   2.0448849126E+02  -3.1101804438E+01   2.5327237798E+02   1.2500000000E+02  0.  0
</event>
<event>
 4   0  0.3991300E-04  0.5016509E+03  0.7818609E-02  0.1013349E+00
       21   -1    0    0  502  501   0.0000000000E+00   0.0000000000E+00   1.0695068347E+02   1.0695068347E+02   0.0000000000E+00  0. -1
       21   -1    0    0  501  502   0.0000000000E+00   0.0000000000E+00  -5.8824692756E+02   5.8824692756E+02   0.0000000000E+00  0. -1
       25    1    1    2    0    0   1.5679989326E+02   1.2108916049E+02  -1.1639010729E+02   2.6157302688E+02   1.2500000000E+02  0.  0
       25    1    1    2    0    0  -1.5679989326E+02  -1.2108916049E+02  -3.6490613679E+02   4.3362458416E+02   1.2500000000E+02  0.  0
</event>
<event>
 4   0  0.3991300E-04  0.4274182E+03  0.7818609E-02  0.1034679E+00
       21   -1    0    0  502  501   0.0000000000E+00   0.0000000000E+00   5.1802015919E+01   5.1802015919E+01   0.0000000000E+00  0.  1
       21   -1    0    0  501  502   0.0000000000E+00   0.0000000000E+00  -8.8165637778E+02   8.8165637778E+02   0.0000000000E+00  0.  1
       25    1    1    2    0    0  -6.3508512792E+01  -3.6916764333E+01  -7.2037875971E+01   1.6189698657E+02   1.2500000000E+02  0.  0
       25    1    1    2    0    0   6.3508512792E+01   3.6916764333E+01  -7.5781648589E+02   7.7156140713E+02   1.2500000000E+02  0.  0
</event>
<event>
 4   0  0.3991300E-04  0.8784488E+03  0.7818609E-02  0.9452930E-01
       21   -1    0    0  502  501   0.0000000000E+00   0.0000000000E+00   1.5018862787E+02   1.5018862787E+02   0.0000000000E+00  0. -1
       21   -1    0    0  501  502   0.0000000000E+00   0.0000000000E+00  -1.2845053329E+03   1.2845053329E+03   0.0000000000E+00  0.  1
       25    1    1    2    0    0   1.2088179304E+02   2.4009715604E+02  -1.0964655891E+03   1.1358348649E+03   1.2500000000E+02  0.  0
       25    1    1    2    0    0  -1.2088179304E+02  -2.4009715604E+02  -3.7851115955E+01   2.9885909591E+02   1.2500000000E+02  0.  0
</event>
<event>
 4   0  0.3991300E-04  0.7281307E+03  0.7818609E-02  0.9670299E-01
       21   -1    0    0  502  501   0.0000000000E+00   0.0000000000E+00   1.5301244184E+01   1.5301244184E+01   0.0000000000E+00  0.  1
       21   -1    0    0  501  502   0.0000000000E+00   0.0000000000E+00  -8.6622736894E+03   8.6622736894E+03   0.0000000000E+00  0.  1
       25    1    1    2    0    0   3.3344048109E+01  -3.3542880854E+02  -5.0075042987E+03   5.0203932727E+03   1.2500000000E+02  0.  0
       25    1    1    2    0    0  -3.3344048109E+01   3.3542880854E+02  -3.6394681465E+03   3.6571816609E+03   1.2500000000E+02  0.  0
</event>
<event>
 4   0  0.3991300E-04  0.9918099E+03  0.7818609E-02  0.9317573E-01
       21   -1    0    0  502  501   0.0000000000E+00   0.0000000000E+00   3.1362347477E+03   3.1362347477E+03   0.0000000000E+00  0.  1
       21   -1    0    0  501  502   0.0000000000E+00   0.0000000000E+00  -7.8413043209E+01   7.8413043209E+01   0.0000000000E+00  0.  1
       25    1    1    2    0    0   1.9509109224E+02   4.2324828033E+02   1.8998409167E+03   1.9601581951E+03   1.2500000000E+02  0.  0
       25    1    1    2    0    0  -1.9509109224E+02  -4.2324828033E+02   1.1579807878E+03   1.2544895958E+03   1.2500000000E+02  0.  0
</event>
<event>
 4   0  0.3991300E-04  0.4129563E+03  0.7818609E-02  0.1039383E+00
       21   -1    0    0  502  501   0.0000000000E+00   0.0000000000E+00   7.4516555337E+01   7.4516555337E+01   0.0000000000E+00  0.  1
       21   -1    0    0  501  502   0.0000000000E+00   0.0000000000E+00  -5.7213085892E+02   5.7213085892E+02   0.0000000000E+00  0.  1
       25    1    1    2    0    0   6.5887360465E+01  -8.5368089814E+01  -5.4614545272E+01   1.7388675505E+02   1.2500000000E+02  0.  0
       25    1    1    2    0    0  -6.5887360465E+01   8.5368089814E+01  -4.4299975831E+02   4.7276065920E+02   1.2500000000E+02  0.  0
</event>
<event>
 4   0  0.3991300E-04  0.4354681E+03  0.7818609E-02  0.1032146E+00
       21   -1    0    0  502  501   0.0000000000E+00   0.0000000000E+00   1.0081992792E+01   1.0081992792E+01   0.0000000000E+00  0. -1
       21   -1    0    0  501  502   0.0000000000E+00   0.0000000000E+00  -4.7022564738E+03   4.7022564738E+03   0.0000000000E+00  0. -1
       25    1    1    2    0    0  -1.4780001597E+01  -1.5649581723E+02  -3.2562189980E+03   3.2624065584E+03   1.2500000000E+02  0.  0
       25    1    1    2    0    0   1.4780001597E+01   1.5649581723E+02  -1.4359554830E+03   1.4499319082E+03   1.2500000000E+02  0.  0
</event>
<event>
 4   0  0.3991300E-04  0.4286911E+03  0.7818609E-02  0.1034274E+00
       21   -1    0    0  502  501   0.0000000000E+00   0.0000000000E+00   3.9882766889E+01   3.9882766889E+01   0.0000000000E+00  0.  1
       21   -1    0    0  501  502   0.0000000000E+00   0.0000000000E+00  -1.1519768316E+03   1.1519768316E+03   0.0000000000E+00  0.  1
       25    1    1    2    0    0  -1.9291021294E+01   1.6613915957E+02  -4.2142365258E+02   4.7031612645E+02   1.2500000000E+02  0.  0
       25    1    1    2    0    0   1.9291021294E+01  -1.6613915957E+02  -6.9067041212E+02   7.2154347203E+02   1.2500000000E+02  0.  0
</event>
<event>
 4   0  0.3991300E-04  0.4024155E+03  0.7818609E-02  0.1042946E+00
       21   -1    0    0  502  501   0.0000000000E+00   0.0000000000E+00   1.1152757110E+03   1.1152757110E+03   0.0000000000E+00  0.  1
       21   -1    0    0  501  502   0.0000000000E+00   0.0000000000E+00  -3.6300049586E+01   3.6300049586E+01   0.0000000000E+00  0.  1
       25    1    1    2    0    0   1.4531069208E+02   3.7943027507E+01   4.0210757094E+02   4.4706864035E+02   1.2500000000E+02  0.  0
       25    1    1    2    0    0  -1.4531069208E+02  -3.7943027507E+01   6.7686809043E+02   7.0450712020E+02   1.2500000000E+02  0.  0
</event>
<event>
 4   0  0.3991300E-04  0.3506955E+03  0.7818609E-02  0.1062330E+00
       21   -1    0    0  502  501   0.0000000000E+00   0.0000000000E+00   1.5174482747E+01   1.5174482747E+01   0.0000000000E+00  0. -1
       21   -1    0    0  501  502   0.0000000000E+00   0.0000000000E+00  -2.0262191867E+03   2.0262191867E+03   0.0000000000E+00  0. -1
       25    1    1    2    0    0   7.1635431843E+01   4.2084932943E+01  -4.7779760936E+02   5.0081766361E+02   1.2500000000E+02  0.  0
       25    1    1    2    0    0  -7.1635431843E+01  -4.2084932943E+01  -1.5332470946E+03   1.5405760058E+03   1.2500000000E+02  0.  0
</event>
<event>
 4   0  0.3991300E-04  0.4712532E+03  0.7818609E-02  0.1021567E+00
       21   -1    0    0  502  501   0.0000000000E+00   0.0000000000E+00   6.1575718240E+01   6.1575718240E+01   0.0000000000E+00  0.  1
       21   -1    0    0  501  502   0.0000000000E+00   0.0000000000E+00  -9.0165228989E+02   9.0165228989E+02   0.0000000000E+00  0.  1
       25    1    1    2    0    0  -5.6893955544E+01  -1.8215971466E+02  -2.9953401798E+02   3.7651654911E+02   1.2500000000E+02  0.  0
       25    1    1    2    0    0   5.6893955544E+01   1.8215971466E+02  -5.4054255367E+02   5.8671145902E+02   1.2500000000E+02  0.  0
</event>
<event>
 4   0  0.3991300E-04  0.9187879E+03  0.7818609E-02  0.9402396E-01
       21   -1    0    0  502  501   0.0000000000E+00   0.0000000000E+00   3.1362764752E+03   3.1362764752E+03   0.0000000000E+00  0.  1
       21   -1    0    0  501  502   0.0000000000E+00   0.0000000000E+00  -6.7290885557E+01   6.7290885557E+01   0.0000000000E+00  0.  1
       25    1    1    2    0    0   2.2164086869E+02  -3.4978715121E+02   9.9498260427E+02   1.0849382971E+03   1.2500000000E+02  0.  0
       25    1    1    2    0    0  -2.2164086869E+02   3.4978715121E+02   2.0740029854E+03   2.1186290636E+03   1.2500000000E+02  0.  0
</event>
<event>
 4   0  0.3991300E-04  0.7226261E+03  0.7818609E-02  0.9679302E-01
       21   -1    0    0  502  501   0.0000000000E+00   0.0000000000E+00   5.2593627639E+01   5.2593627639E+01   0.0000000000E+00  0.  1
       21   -1    0    0  501  502   0.0000000000E+00   0.0000000000E+00  -2.4821848886E+03   2.4821848886E+03   0.0000000000E+00  0.  1
       25    1    1    2    0    0  -2.2727233608E+02   6.4709253341E+01  -2.0674133943E+03   2.0846254209E+03   1.2500000000E+02  0.  0
       25    1    1    2    0    0   2.2727233608E+02  -6.4709253341E+01  -3.6217786666E+02   4.5015309542E+02   1.2500000000E+02  0.  0
</event>
<event>
 4   0  0.3991300E-04  0.6081218E+03  0.7818609E-02  0.9888698E-01
       21   -1    0    0  502  501   0.0000000000E+00   0.0000000000E+00   1.8814421712E+02   1.8814421712E+02   0.0000000000E+00  0.  1
       21   -1    0    0  501  502   0.0000000000E+00   0.0000000000E+00  -4.9139454096E+02   4.9139454096E+02   0.0000000000E+00  0.  1
       25    1    1    2    0    0   1.2417800747E+02  -7.3796606529E+01   1.1271914181E+02   2.2180333993E+02   1.2500000000E+02  0.  0
       25    1    1    2    0    0  -1.2417800747E+02   7.3796606529E+01  -4.1596946565E+02   4.5773541814E+02   1.2500000000E+02  0.  0
</event>
<event>
 4   0  0.3991300E-04  0.2965389E+03  0.7818609E-02  0.1086984E+00
       21   -1    0    0  502  501   0.0000000000E+00   0.0000000000E+00   2.3528064734E+03   2.3528064734E+03   0.0000000000E+00  0. -1
       21   -1    0    0  501  502   0.0000000000E+00   0.0000000000E+00  -9.3436625115E+00   9.3436625115E+00   0.0000000000E+00  0. -1
       25    1    1    2    0    0   6.5967986029E+01   2.2488162678E+01   8.6308237227E+02   8.7486780371E+02   1.2500000000E+02  0.  0
       25    1    1    2    0    0  -6.5967986029E+01  -2.2488162678E+01   1.4803804387E+03   1.4872823322E+03   1.2500000000E+02  0.  0
</event>
<event>
 4   0  0.3991300E-04  0.3411339E+03  0.7818609E-02  0.1066314E+00
       21   -1    0    0  502  501   0.0000000000E+00   0.0000000000E+00   2.8966891607E+02   2.8966891607E+02   0.0000000000E+00  0. -1
       21   -1    0    0  501  502   0.0000000000E+00   0.0000000000E+00  -1.0043563118E+02   1.0043563118E+02   0.0000000000E+00  0. -1
       25    1    1    2    0    0   6.6161862600E+01   1.6005255503E+01   2.0210158933E+02   2.4719144944E+02   1.2500000000E+02  0.  0
       25    1    1    2    0    0  -6.6161862600E+01  -1.6005255503E+01  -1.2868304437E+01   1.4291309781E+02   1.2500000000E+02  0.  0
</event>
<event>
 4   0  0.3991300E-04  0.3715159E+03  0.7818609E-02  0.1054115E+00
       21   -1    0    0  502  501   0.0000000000E+00   0.0000000000E+00   7.2143693136E+01   7.2143693136E+01   0.0000000000E+00  0. -1
       21   -1    0    0  501  502   0.0000000000E+00   0.0000000000E+00  -4.7829579442E+02   4.7829579442E+02   0.0000000000E+00  0. -1
       25    1    1    2    0    0  -7.4605182689E+01  -1.1508288728E+02  -2.1556209514E+02   2.8443280593E+02   1.2500000000E+02  0.  0
       25    1    1    2    0    0   7.4605182689E+01   1.1508288728E+02  -1.9059000614E+02   2.6600668162E+02   1.2500000000E+02  0.  0
</event>
<event>
 4   0  0.3991300E-04  0.3626294E+03  0.7818609E-02  0.1057548E+00
       21   -1    0    0  502  501   0.0000000000E+00   0.0000000000E+00   4.1444319546E+01   4.1444319546E+01   0.0000000000E+00  0.  1
       21   -1    0    0  501  502   0.0000000000E+00   0.0000000000E+00  -7.9323333453E+02   7.9323333453E+02   0.0000000000E+00  0.  1
       25    1    1    2    0    0   9.6756349661E+01  -8.6275128053E+01  -4.2444026843E+02   4.6106369450E+02   1.2500000000E+02  0.  0
       25    1    1    2    0    0  -9.6756349661E+01   8.6275128053E+01  -3.2734874656E+02   3.7361395958E+02   1.2500000000E+02  0.  0
</event>
<event>
 4   0  0.3991300E-04  0.7196221E+03  0.7818609E-02  0.9684252E-01
       21   -1    0    0  502  501   0.0000000000E+00   0.0000000000E+00   8.0350914286E+01   8.0350914286E+01   0.0000000000E+00  0. -1
       21   -1    0    0  501  502   0.0000000000E+00   0.0000000000E+00  -1.6112324402E+03   1.6112324402E+03   0.0000000000E+00  0.  1
       25    1    1    2    0    0   1.4378616170E+02   2.7577706833E+02  -1.0729325688E+03   1.1240715052E+03   1.2500000000E+02  0.  0
       25    1    1    2    0    0  -1.4378616170E+02  -2.7577706833E+02  -4.5794895713E+02   5.6751184926E+02   1.2500000000E+02  0.  0
</event>
<event>
 4   0  0.3991300E-04  0.8177921E+03  0.7818609E-02  0.9534615E-01
       21   -1    0    0  502  501   0.0000000000E+00   0.0000000000E+00   2.1302925733E+03   2.1302925733E+03   0.0000000000E+00  0.  1
       21   -1    0    0  501  502   0.0000000000E+00   0.0000000000E+00  -7.8484982762E+01   7.8484982762E+01   0.0000000000E+00  0.  1
       25    1    1    2    0    0  -3.8024993593E+01   3.8302135053E+02   8.6795933451E+02   9.5766886837E+02   1.2500000000E+02  0.  0
       25    1    1    2    0    0   3.8024993593E+01  -3.8302135053E+02   1.1838482560E+03   1.2511086877E+03   1.2500000000E+02  0.  0
</event>
<event>
 4   0  0.3991300E-04  0.1322767E+04  0.7818609E-02  0.9011703E-01
       21   -1    0    0  502  501   0.0000000000E+00   0.0000000000E+00   1.9155723842E+02   1.9155723842E+02   0.0000000000E+00  0.  1
       21   -1    0    0  501  502   0.0000000000E+00   0.0000000000E+00  -2.2835363354E+03   2.2835363354E+03   0.0000000000E+00  0.  1
       25    1    1    2    0    0  -6.2909907054E+02   9.1045394017E+01  -1.2952671236E+03   1.4482392156E+03   1.2500000000E+02  0.  0
       25    1    1    2    0    0   6.2909907054E+02  -9.1045394017E+01  -7.9671197340E+02   1.0268543582E+03   1.2500000000E+02  0.  0
</event>
<event>
 4   0  0.3991300E-04  0.3783279E+03  0.7818609E-02  0.1051554E+00
       21   -1    0    0  502  501   0.0000000000E+00   0.0000000000E+00   6.6089090866E+02   6.6089090866E+02   0.0000000000E+00  0. -1
       21   -1    0    0  501  502   0.0000000000E+00   0.0000000000E+00  -5.4143583168E+01   5.4143583168E+01   0.0000000000E+00  0. -1
       25    1    1    2    0    0   9.5310842665E+01   9.3626580028E+01   3.9416991421E+02   4.3456301555E+02   1.2500000000E+02  0.  0
       25    1    1    2    0    0  -9.5310842665E+01  -9.3626580028E+01   2.1257741128E+02   2.8047147628E+02   1.2500000000E+02  0.  0
</event>
<event>
 4   0  0.3991300E-04  0.5288518E+03  0.7818609E-02  0.1006511E+00
       21   -1    0    0  502  501   0.0000000000E+00   0.0000000000E+00   8.1951038401E+01   8.1951038401E+01   0.0000000000E+00  0. -1
       21   -1    0    0  501  502   0.0000000000E+00   0.0000000000E+00  -8.5320538675E+02   8.5320538675E+02   0.0000000000E+00  0. -1
       25    1    1    2    0    0  -1.9154026327E+02  -5.7297620580E+01  -1.7398448004E+02   2.9302950205E+02   1.2500000000E+02  0.  0
       25    1    1    2    0    0   1.9154026327E+02   5.7297620580E+01  -5.9726986831E+02   6.4212692310E+02   1.2500000000E+02  0.  0
</event>
<event>
 4   0  0.3991300E-04  0.3556290E+03  0.7818609E-02  0.1060328E+00
       21   -1    0    0  502  501   0.0000000000E+00   0.0000000000E+00   7.6626071727E+03   7.6626071727E+03   0.0000000000E+00  0.  1
       21   -1    0    0  501  502   0.0000000000E+00   0.0000000000E+00  -4.1262716068E+00   4.1262716068E+00   0.0000000000E+00  0.  1
       25    1    1    2    0    0   1.1090433676E+02  -2.6251381814E+01   5.0108384757E+03   5.0136928642E+03   1.2500000000E+02  0.  0
       25    1    1    2    0    0  -1.1090433676E+02   2.6251381814E+01   2.6476424254E+03   2.6530405801E+03   1.2500000000E+02  0.  0
</event>
<event>
 4   0  0.3991300E-04  0.4756212E+03  0.7818609E-02  0.1020346E+00
       21   -1    0    0  502  501   0.0000000000E+00   0.0000000000E+00   6.4016451347E+02   6.4016451347E+02   0.0000000000E+00  0. -1
       21   -1    0    0  501  502   0.0000000000E+00   0.0000000000E+00  -8.8342739011E+01   8.8342739011E+01   0.0000000000E+00  0. -1
       25    1    1    2    0    0   1.1635923133E+02  -1.6384802135E+02   3.1161096927E+02   3.9129533729E+02   1.2500000000E+02  0.  0
       25    1    1    2    0    0  -1.1635923133E+02   1.6384802135E+02   2.4021080519E+02   3.3721191519E+02   1.2500000000E+02  0.  0
</event>
<event>
 4   0  0.3991300E-04  0.4107555E+03  0.7818609E-02  0.1040118E+00
       21   -1    0    0  502  501   0.0000000000E+00   0.0000000000E+00   2.3606232807E+02   2.3606232807E+02   0.0000000000E+00  0.  1
       21   -1    0    0  501  502   0.0000000000E+00   0.0000000000E+00  -1.7868174634E+02   1.7868174634E+02   0.0000000000E+00  0.  1
       25    1    1    2    0    0   2.3340581553E+01  -1.1384505728E+02  -8.6653577298E+01   1.9141400751E+02   1.2500000000E+02  0.  0
       25    1    1    2    0    0  -2.3340581553E+01   1.1384505728E+02   1.4403415902E+02   2.2333006689E+02   1.2500000000E+02  0.  0
</event>
<event>
 4   0  0.3991300E-04  0.5607239E+03  0.7818609E-02  0.9990418E-01
       21   -1    0    0  502  501   0.0000000000E+00   0.0000000000E+00   7.5613419044E+02   7.5613419044E+02   0.0000000000E+00  0.  1
       21   -1    0    0  501  502   0.0000000000E+00   0.0000000000E+00  -1.0395353809E+02   1.0395353809E+02   0.0000000000E+00  0.  1
       25    1    1    2    0    0  -1.1288051348E+02   2.2028280180E+02   3.8954402116E+02   4.7815903998E+02   1.2500000000E+02  0.  0
       25    1    1    2    0    0   1.1288051348E+02  -2.2028280180E+02   2.6263663120E+02   3.8192868855E+02   1.2500000000E+02  0.  0
</event>
<event>
 4   0  0.3991300E-04  0.6373793E+03  0.7818609E-02  0.9830753E-01
       21   -1    0    0  502  501   0.0000000000E+00   0.0000000000E+00   7.8546979015E+02   7.8546979015E+02   0.0000000000E+00  0.  1
       21   -1    0    0  501  502   0.0000000000E+00   0.0000000000E+00  -1.2930236750E+02   1.2930236750E+02   0.0000000000E+00  0.  1
       25    1    1    2    0    0   1.5873214877E+02   1.3696606650E+02   3.4014785646E+01   2.4645000318E+02   1.2500000000E+02  0.  0
       25    1    1    2    0    0  -1.5873214877E+02  -1.3696606650E+02   6.2215263701E+02   6.6832215447E+02   1.2500000000E+02  0.  0
</event>
<event>
 4   0  0.3991300E-04  0.3937351E+03  0.7818609E-02  0.1045971E+00
       21   -1    0    0  502  501   0.0000000000E+00   0.0000000000E+00   2.6106750111E+02   2.6106750111E+02   0.0000000000E+00  0.  1
       21   -1    0    0  501  502   0.0000000000E+00   0.0000000000E+00  -1.4845519676E+02   1.4845519676E+02   0.0000000000E+00  0.  1
       25    1    1    2    0    0   1.4560952364E+01  -5.4666978238E+01   2.0314534380E+02   2.4513981837E+02   1.2500000000E+02  0.  0
       25    1    1    2    0    0  -1.4560952364E+01   5.4666978238E+01  -9.0533039443E+01   1.6438287950E+02   1.2500000000E+02  0.  0
</event>
<event>
 4   0  0.3991300E-04  0.3527056E+03  0.7818609E-02  0.1061510E+00
       21   -1    0    0  502  501   0.0000000000E+00   0.0000000000E+00   1.0810975413E+03   1.0810975413E+03   0.0000000000E+00  0.  1
       21   -1    0    0  501  502   0.0000000000E+00   0.0000000000E+00  -2.8767350267E+01   2.8767350267E+01   0.0000000000E+00  0.  1
       25    1    1    2    0    0   2.8164075414E+01   1.0633603808E+02   7.0896591253E+02   7.2825698299E+02   1.2500000000E+02  0.  0
       25    1    1    2    0    0  -2.8164075414E+01  -1.0633603808E+02   3.4336427850E+02   3.8160790858E+02   1.2500000000E+02  0.  0
</event>
<event>
 4   0  0.3991300E-04  0.5725242E+03  0.7818609E-02  0.9964109E-01
       21   -1    0    0  502  501   0.0000000000E+00   0.0000000000E+00   3.5776788367E+02   3.5776788367E+02   0.0000000000E+00  0. -1
       21   -1    0    0  501  502   0.0000000000E+00   0.0000000000E+00  -2.2904788229E+02   2.2904788229E+02   0.0000000000E+00  0. -1
       25    1    1    2    0    0   6.7168292132E+01  -1.6428514072E+02  -1.2689862471E+02   2.5145466367E+02   1.2500000000E+02  0.  0
       25    1    1    2    0    0  -6.7168292132E+01   1.6428514072E+02   2.5561862608E+02   3.3536110229E+02   1.2500000000E+02  0.  0
</event>
<event>
 4   0  0.3991300E-04  0.5012458E+03  0.7818609E-02  0.1013454E+00
       21   -1    0    0  502  501   0.0000000000E+00   0.0000000000E+00   3.2041593630E+02   3.2041593630E+02   0.0000000000E+00  0. -1
       21   -1    0    0  501  502   0.0000000000E+00   0.0000000000E+00  -1.9603217191E+02   1.9603217191E+02   0.0000000000E+00  0. -1
       25    1    1    2    0    0   2.0003999789E+02   3.9255247749E+00  -2.4963371876E+01   2.3723317735E+02   1.2500000000E+02  0.  0
       25    1    1    2    0    0  -2.0003999789E+02  -3.9255247749E+00   1.4934713626E+02   2.7921493085E+02   1.2500000000E+02  0.  0
</event>
<event>
 4   0  0.3991300E-04  0.4527177E+03  0.7818609E-02  0.1026915E+00
       21   -1    0    0  502  501   0.0000000000E+00   0.0000000000E+00   2.0252072954E+02   2.0252072954E+02   0.0000000000E+00  0. -1
       21   -1    0    0  501  502   0.0000000000E+00   0.0000000000E+00  -2.5300288502E+02   2.5300288502E+02   0.0000000000E+00  0. -1
       25    1    1    2    0    0  -8.6961119636E+01   1.0924622806E+02   1.0249595497E+02   2.1360570090E+02   1.2500000000E+02  0.  0
       25    1    1    2    0    0   8.6961119636E+01  -1.0924622806E+02  -1.5297811044E+02   2.4191791366E+02   1.2500000000E+02  0.  0
</event>
<event>
 4   0  0.3991300E-04  0.3573843E+03  0.7818609E-02  0.1059624E+00
       21   -1    0    0  502  501   0.0000000000E+00   0.0000000000E+00   2.4582019523E+02   2.4582019523E+02   0.0000000000E+00  0. -1
       21   -1    0    0  501  502   0.0000000000E+00   0.0000000000E+00  -1.2989527171E+02   1.2989527171E+02   0.0000000000E+00  0. -1
       25    1    1    2    0    0   1.0583125693E+02   1.7452845087E+00   1.3305876219E+02   2.1102828047E+02   1.2500000000E+02  0.  0
       25    1    1    2    0    0  -1.0583125693E+02  -1.7452845087E+00  -1.7133838668E+01   1.6468718647E+02   1.2500000000E+02  0.  0
</event>
<event>
 4   0  0.3991300E-04  0.4285694E+03  0.7818609E-02  0.1034313E+00
       21   -1    0    0  502  501   0.0000000000E+00   0.0000000000E+00   4.0751756703E+02   4.0751756703E+02   0.0000000000E+00  0. -1
       21   -1    0    0  501  502   0.0000000000E+00   0.0000000000E+00  -1.1267718074E+02   1.1267718074E+02   0.0000000000E+00  0.  1
       25    1    1    2    0    0  -1.4814471553E+02   5.9297132870E+01   2.3177599453E+02   3.0790926967E+02   1.2500000000E+02  0.  0
       25    1    1    2    0    0   1.4814471553E+02  -5.9297132870E+01   6.3064391759E+01   2.1228547811E+02   1.2500000000E+02  0.  0
</event>
<event>
 4   0  0.3991300E-04  0.1290313E+04  0.7818609E-02  0.9037283E-01
       21   -1    0    0  502  501   0.0000000000E+00   0.0000000000E+00   1.1178093443E+02   1.1178093443E+02   0.0000000000E+00  0.  1
       21   -1    0    0  501  502   0.0000000000E+00   0.0000000000E+00  -3.7235933242E+03   3.7235933242E+03   0.0000000000E+00  0. -1
       25    1    1    2    0    0   1.0093845260E+02  -3.8661892581E+02  -3.4686923191E+02   5.4369663329E+02   1.2500000000E+02  0.  0
       25    1    1    2    0    0  -1.0093845260E+02   3.8661892581E+02  -3.2649431579E+03   3.2916776253E+03   1.2500000000E+02  0.  0
</event>
<event>
 4   0  0.3991300E-04  0.2946558E+03  0.7818609E-02  0.1087943E+00
       21   -1    0    0  502  501   0.0000000000E+00   0.0000000000E+00   2.4054696828E+02   2.4054696828E+02   0.0000000000E+00  0. -1
       21   -1    0    0  501  502   0.0000000000E+00   0.0000000000E+00  -9.0233961607E+01   9.0233961607E+01   0.0000000000E+00  0. -1
       25    1    1    2    0    0   6.2434845625E+01  -3.1730250575E+01   3.6666058791E+01   1.4789969106E+02   1.2500000000E+02  0.  0
       25    1    1    2    0    0  -6.2434845625E+01   3.1730250575E+01   1.1364694788E+02   1.8288123882E+02   1.2500000000E+02  0.  0
</event>
<event>
 4   0  0.3991300E-04  0.4026553E+03  0.7818609E-02  0.1042864E+00
       21   -1    0    0  502  501   0.0000000000E+00   0.0000000000E+00   1.7323611166E+03   1.7323611166E+03   0.0000000000E+00  0. -1
       21   -1    0    0  501  502   0.0000000000E+00   0.0000000000E+00  -2.3397449613E+01   2.3397449613E+01   0.0000000000E+00  0. -1
       25    1    1    2    0    0   1.3878897458E+01  -1.3878683005E+02   1.1764893110E+03   1.1913045399E+03   1.2500000000E+02  0.  0
       25    1    1    2    0    0  -1.3878897458E+01   1.3878683005E+02   5.3247435601E+02   5.6445402630E+02   1.2500000000E+02  0.  0
</event>
<event>
 4   0  0.3991300E-04  0.1318643E+04  0.7818609E-02  0.9014910E-01
       21   -1    0    0  502  501   0.0000000000E+00   0.0000000000E+00   8.2034173024E+02   8.2034173024E+02   0.0000000000E+00  0.  1
       21   -1    0    0  501  502   0.0000000000E+00   0.0000000000E+00  -5.2990740545E+02   5.2990740545E+02   0.0000000000E+00  0.  1
       25    1    1    2    0    0  -4.6202776845E+02   2.7392882352E+02  -2.2479332717E+02   5.9553648009E+02   1.2500000000E+02  0.  0
       25    1    1    2    0    0   4.6202776845E+02  -2.7392882352E+02   5.1522765197E+02   7.5471265560E+02   1.2500000000E+02  0.  0
</event>
<event>
 4   0  0.3991300E-04  0.3656203E+03  0.7818609E-02  0.1056380E+00
       21   -1    0    0  502  501   0.0000000000E+00   0.0000000000E+00   8.8361304679E+01   8.8361304679E+01   0.0000000000E+00  0.  1
       21   -1    0    0  501  502   0.0000000000E+00   0.0000000000E+00  -3.7821481868E+02   3.7821481868E+02   0.0000000000E+00  0.  1
       25    1    1    2    0    0  -4.0191733812E+01   6.5767631882E+01  -2.8386472559E+02   3.1960121919E+02   1.2500000000E+02  0.  0
       25    1    1    2    0    0   4.0191733812E+01  -6.5767631882E+01  -5.9887884095E+00   1.4697490417E+02   1.2500000000E+02  0.  0
</event>
<event>
 4   0  0.3991300E-04  0.7315359E+03  0.7818609E-02  0.9664771E-01
       21   -1    0    0  502  501   0.0000000000E+00   0.0000000000E+00   2.2716258379E+01   2.2716258379E+01   0.0000000000E+00  0.  1
       21   -1    0    0  501  502   0.0000000000E+00   0.0000000000E+00  -5.8894474565E+03   5.8894474565E+03   0.0000000000E+00  0.  1
       25    1    1    2    0    0  -1.1607065709E+02   8.5451630526E+01  -5.4554574479E+03   5.4587924804E+03   1.2500000000E+02  0.  0
       25    1    1    2    0    0   1.1607065709E+02  -8.5451630526E+01  -4.1127375018E+02   4.5337123440E+02   1.2500000000E+02  0.  0
</event>
<event>
 4   0  0.3991300E-04  0.6152623E+03  0.7818609E-02  0.9874238E-01
       21   -1    0    0  502  501   0.0000000000E+00   0.0000000000E+00   6.7374441629E+01   6.7374441629E+01   0.0000000000E+00  0. -1
       21   -1    0    0  501  502   0.0000000000E+00   0.0000000000E+00  -1.4046411917E+03   1.4046411917E+03   0.0000000000E+00  0. -1
       25    1    1    2    0    0  -2.5949512619E+02  -1.0790159575E+02  -6.5521805566E+02   7.2382054084E+02   1.2500000000E+02  0.  0
       25    1    1    2    0    0   2.5949512619E+02   1.0790159575E+02  -6.8204869445E+02   7.4819509253E+02   1.2500000000E+02  0.  0
</event>
<event>
 4   0  0.3991300E-04  0.3538784E+03  0.7818609E-02  0.1061034E+00
       21   -1    0    0  502  501   0.0000000000E+00   0.0000000000E+00   1.7270809169E+02   1.7270809169E+02   0.0000000000E+00  0. -1
       21   -1    0    0  501  502   0.0000000000E+00   0.0000000000E+00  -1.8127391761E+02   1.8127391761E+02   0.0000000000E+00  0. -1
       25    1    1    2    0    0  -5.8574767711E+01   3.2900263539E+01   1.0143172972E+02   1.7443287118E+02   1.2500000000E+02  0.  0
       25    1    1    2    0    0   5.8574767711E+01  -3.2900263539E+01  -1.0999755564E+02   1.7954913812E+02   1.2500000000E+02  0.  0
</event>
<event>
 4   0  0.3991300E-04  0.5847187E+03  0.7818609E-02  0.9937627E-01
       21   -1    0    0  502  501   0.0000000000E+00   0.0000000000E+00   3.4272098883E+03   3.4272098883E+03   0.0000000000E+00  0.  1
       21   -1    0    0  501  502   0.0000000000E+00   0.0000000000E+00  -2.4939818993E+01   2.4939818993E+01   0.0000000000E+00  0.  1
       25    1    1    2    0    0   1.0868815008E+02   1.0444184773E+02   2.9828195001E+03   2.9892404359E+03   1.2500000000E+02  0.  0
       25    1    1    2    0    0  -1.0868815008E+02  -1.0444184773E+02   4.1945056924E+02   4.6290927141E+02   1.2500000000E+02  0.  0
</event>
<event>
 4   0  0.3991300E-04  0.3681803E+03  0.7818609E-02  0.1055391E+00
       21   -1    0    0  502  501   0.0000000000E+00   0.0000000000E+00   6.9619001450E+01   6.9619001450E+01   0.0000000000E+00  0. -1
       21   -1    0    0  501  502   0.0000000000E+00   0.0000000000E+00  -4.8678057991E+02   4.8678057991E+02   0.0000000000E+00  0. -1
       25    1    1    2    0    0   1.1865095750E+02  -2.6037177887E+01  -2.9809006743E+02   3.4530953165E+02   1.2500000000E+02  0.  0
       25    1    1    2    0    0  -1.1865095750E+02   2.6037177887E+01  -1.1907151103E+02   2.1109004971E+02   1.2500000000E+02  0.  0
</event>
<event>
 4   0  0.3991300E-04  0.3629349E+03  0.7818609E-02  0.1057428E+00
       21   -1    0    0  502  501   0.0000000000E+00   0.0000000000E+00   2.9042189970E+01   2.9042189970E+01   0.0000000000E+00  0. -1
       21   -1    0    0  501  502   0.0000000000E+00   0.0000000000E+00  -1.1338825839E+03   1.1338825839E+03   0.0000000000E+00  0. -1
       25    1    1    2    0    0   3.5546813278E-01   1.2648514781E+02  -4.3658784777E+02   4.7141549380E+02   1.2500000000E+02  0.  0
       25    1    1    2    0    0  -3.5546813278E-01  -1.2648514781E+02  -6.6825254614E+02   6.9150928006E+02   1.2500000000E+02  0.  0
</event>
<event>
 4   0  0.3991300E-04  0.4566966E+03  0.7818609E-02  0.1025744E+00
       21   -1    0    0  502  501   0.0000000000E+00   0.0000000000E+00   1.7706521490E+01   1.7706521490E+01   0.0000000000E+00  0. -1
       21   -1    0    0  501  502   0.0000000000E+00   0.0000000000E+00  -2.9448438164E+03   2.9448438164E+03   0.0000000000E+00  0. -1
       25    1    1    2    0    0   1.6884836916E+02  -5.3648686070E+00  -2.0430276858E+03   2.0538076051E+03   1.2500000000E+02  0.  0
       25    1    1    2    0    0  -1.6884836916E+02   5.3648686070E+00  -8.8410960907E+02   9.0874273280E+02   1.2500000000E+02  0.  0
</event>
<event>
 4   0  0.3991300E-04  0.5157877E+03  0.7818609E-02  0.1009738E+00
       21   -1    0    0  502  501   0.0000000000E+00   0.0000000000E+00   1.5843511039E+04   1.5843511039E+04   0.0000000000E+00  0.  1
       21   -1    0    0  501  502   0.0000000000E+00   0.0000000000E+00  -4.1978851562E+00   4.1978851562E+00   0.0000000000E+00  0.  1
       25    1    1    2    0    0   5.1742647985E+01  -2.1328980160E+02   6.3188741076E+03   6.3239200524E+03   1.2500000000E+02  0.  0
       25    1    1    2    0    0  -5.1742647985E+01   2.1328980160E+02   9.5204390459E+03   9.5237888714E+03   1.2500000000E+02  0.  0
</event>
<event>
 4   0  0.3991300E-04  0.3587091E+03  0.7818609E-02  0.1059096E+00
       21   -1    0    0  502  501   0.0000000000E+00   0.0000000000E+00   2.5854709311E+01   2.5854709311E+01   0.0000000000E+00  0. -1
       21   -1    0    0  501  502   0.0000000000E+00   0.0000000000E+00  -1.2441855100E+03   1.2441855100E+03   0.0000000000E+00  0. -1
       25    1    1    2    0    0   1.2476203061E+02  -8.6372124396E+00  -7.1555330457E+02   7.3707645289E+02   1.2500000000E+02  0.  0
       25    1    1    2    0    0  -1.2476203061E+02   8.6372124396E+00  -5.0277749615E+02   5.3296376646E+02   1.2500000000E+02  0.  0
</event>
<event>
 4   0  0.3991300E-04  0.4674167E+03  0.7818609E-02  0.1022652E+00
       21   -1    0    0  502  501   0.0000000000E+00   0.0000000000E+00   1.1021247541E+02   1.1021247541E+02   0.0000000000E+00  0. -1
       21   -1    0    0  501  502   0.0000000000E+00   0.0000000000E+00  -4.9558453375E+02   4.9558453375E+02   0.0000000000E+00  0. -1
       25    1    1    2    0    0  -1.7598794410E+02   2.8520408248E+01  -8.2640276415E+01   2.3289393604E+02   1.2500000000E+02  0.  0
       25    1    1    2    0    0   1.7598794410E+02  -2.8520408248E+01  -3.0273178193E+02   3.7290307313E+02   1.2500000000E+02  0.  0
</event>
<event>
 4   0  0.3991300E-04  0.3545629E+03  0.7818609E-02  0.1060758E+00
       21   -1    0    0  502  501   0.0000000000E+00   0.0000000000E+00   5.4521796028E+02   5.4521796028E+02   0.0000000000E+00  0. -1
       21   -1    0    0  501  502   0.0000000000E+00   0.0000000000E+00  -5.7644316662E+01   5.7644316662E+01   0.0000000000E+00  0. -1
       25    1    1    2    0    0  -8.3439369458E+01   5.6781433854E+01   3.7122356775E+02   4.0449746212E+02   1.2500000000E+02  0.  0
       25    1    1    2    0    0   8.3439369458E+01  -5.6781433854E+01   1.1635007587E+02   1.9836481482E+02   1.2500000000E+02  0.  0
</event>
<event>
 4   0  0.3991300E-04  0.4948085E+03  0.7818609E-02  0.1015143E+00
       21   -1    0    0  502  501   0.0000000000E+00   0.0000000000E+00   1.1345682154E+02   1.1345682154E+02   0.0000000000E+00  0.  1
       21   -1    0    0  501  502   0.0000000000E+00   0.0000000000E+00  -5.3949045525E+02   5.3949045525E+02   0.0000000000E+00  0.  1
       25    1    1    2    0    0  -1.5812917415E+02   3.0260719573E+01  -3.9805843335E+02   4.4720919403E+02   1.2500000000E+02  0.  0
       25    1    1    2    0    0   1.5812917415E+02  -3.0260719573E+01  -2.7975200365E+01   2.0573808277E+02   1.2500000000E+02  0.  0
</event>
<event>
 4   0  0.3991300E-04  0.5694747E+03  0.7818609E-02  0.9970842E-01
       21   -1    0    0  502  501   0.0000000000E+00   0.0000000000E+00   1.5441703187E+02   1.5441703187E+02   0.0000000000E+00  0. -1
       21   -1    0    0  501  502   0.0000000000E+00   0.0000000000E+00  -5.2504163814E+02   5.2504163814E+02   0.0000000000E+00  0. -1
       25    1    1    2    0    0  -3.1217594691E+01  -2.4126082904E+02  -2.7978129643E+02   3.9125937648E+02   1.2500000000E+02  0.  0
       25    1    1    2    0    0   3.1217594691E+01   2.4126082904E+02  -9.0843309838E+01   2.8819929353E+02   1.2500000000E+02  0.  0
</event>
<event>
 4   0  0.3991300E-04  0.4156270E+03  0.7818609E-02  0.1038499E+00
       21   -1    0    0  502  501   0.0000000000E+00   0.0000000000E+00   1.1237936746E+03   1.1237936746E+03   0.0000000000E+00  0.  1
       21   -1    0    0  501  502   0.0000000000E+00   0.0000000000E+00  -3.8429161752E+01   3.8429161752E+01   0.0000000000E+00  0.  1
       25    1    1    2    0    0   1.2404993504E+02  -8.5562354152E+01   7.3746594892E+02   7.6301397670E+02   1.2500000000E+02  0.  0
       25    1    1    2    0    0  -1.2404993504E+02   8.5562354152E+01   3.4789856389E+02   3.9920885960E+02   1.2500000000E+02  0.  0
</event>
<event>
 4   0  0.3991300E-04  0.9925497E+03  0.7818609E-02  0.9316754E-01
       21   -1    0    0  502  501   0.0000000000E+00   0.0000000000E+00   7.4001869065E+01   7.4001869065E+01   0.0000000000E+00  0. -1
       21   -1    0    0  501  502   0.0000000000E+00   0.0000000000E+00  -3.3281422695E+03   3.3281422695E+03   0.0000000000E+00  0. -1
       25    1    1    2    0    0   2.7409359295E+02   2.5513242021E+02  -2.6579073603E+03   2.6870646411E+03   1.2500000000E+02  0.  0
       25    1    1    2    0    0  -2.7409359295E+02  -2.5513242021E+02  -5.9623304012E+02   7.1507949744E+02   1.2500000000E+02  0.  0
</event>
<event>
 4   0  0.3991300E-04  0.4245166E+03  0.7818609E-02  0.1035606E+00
       21   -1    0    0  502  501   0.0000000000E+00   0.0000000000E+00   4.4228094628E+03   4.4228094628E+03   0.0000000000E+00  0. -1
       21   -1    0    0  501  502   0.0000000000E+00   0.0000000000E+00  -1.0186646413E+01   1.0186646413E+01   0.0000000000E+00  0. -1
       25    1    1    2    0    0   4.6947260645E+01  -1.5794324333E+02   1.7078569366E+03   1.7203343946E+03   1.2500000000E+02  0.  0
       25    1    1    2    0    0  -4.6947260645E+01   1.5794324333E+02   2.7047658798E+03   2.7126617146E+03   1.2500000000E+02  0.  0
</event>
<event>
 4   0  0.3991300E-04  0.4447098E+03  0.7818609E-02  0.1029311E+00
       21   -1    0    0  502  501   0.0000000000E+00   0.0000000000E+00   1.5066611910E+01   1.5066611910E+01   0.0000000000E+00  0. -1
       21   -1    0    0  501  502   0.0000000000E+00   0.0000000000E+00  -3.2815412102E+03   3.2815412102E+03   0.0000000000E+00  0. -1
       25    1    1    2    0    0   5.8931368417E+01  -3.0436424969E+01  -3.6180602506E+02   3.8849437823E+02   1.2500000000E+02  0.  0
       25    1    1    2    0    0  -5.8931368417E+01   3.0436424969E+01  -2.9046685732E+03   2.9081134439E+03   1.2500000000E+02  0.  0
</event>
<event>
 4   0  0.3991300E-04  0.3794488E+03  0.7818609E-02  0.1051138E+00
       21   -1    0    0  502  501   0.0000000000E+00   0.0000000000E+00   8.2058172095E+01   8.2058172095E+01   0.0000000000E+00  0.  1
       21   -1    0    0  501  502   0.0000000000E+00   0.0000000000E+00  -4.3865651954E+02   4.3865651954E+02   0.0000000000E+00  0.  1
       25    1    1    2    0    0  -1.0638239354E+01   1.4133088250E+02  -1.5522336648E+02   2.4455446017E+02   1.2500000000E+02  0.  0
       25    1    1    2    0    0   1.0638239354E+01  -1.4133088250E+02  -2.0137498096E+02   2.7616023147E+02   1.2500000000E+02  0.  0
</event>
<event>
 4   0  0.3991300E-04  0.5619653E+03  0.7818609E-02  0.9987618E-01
       21   -1    0    0  502  501   0.0000000000E+00   0.0000000000E+00   1.1126237216E+03   1.1126237216E+03   0.0000000000E+00  0.  1
       21   -1    0    0  501  502   0.0000000000E+00   0.0000000000E+00  -7.0959514905E+01   7.0959514905E+01   0.0000000000E+00  0.  1
       25    1    1    2    0    0  -4.7943305976E+01  -2.3390150772E+02   6.8823810393E+02   7.3912459275E+02   1.2500000000E+02  0.  0
       25    1    1    2    0    0   4.7943305976E+01   2.3390150772E+02   3.5342610280E+02   4.4445864379E+02   1.2500000000E+02  0.  0
</event>
<event>
 4   0  0.3991300E-04  0.4202476E+03  0.7818609E-02  0.1036986E+00
       21   -1    0    0  502  501   0.0000000000E+00   0.0000000000E+00   1.1093733662E+01   1.1093733662E+01   0.0000000000E+00  0.  1
       21   -1    0    0  501  502   0.0000000000E+00   0.0000000000E+00  -3.9799045773E+03   3.9799045773E+03   0.0000000000E+00  0.  1
       25    1    1    2    0    0  -1.6867861574E+02  -8.2171731734E+00  -2.0095387811E+03   2.0204927889E+03   1.2500000000E+02  0.  0
       25    1    1    2    0    0   1.6867861574E+02   8.2171731734E+00  -1.9592720625E+03   1.9705055220E+03   1.2500000000E+02  0.  0
</event>
<event>
 4   0  0.3991300E-04  0.4065461E+03  0.7818609E-02  0.1041536E+00
       21   -1    0    0  502  501   0.0000000000E+00   0.0000000000E+00   1.3560487017E+03   1.3560487017E+03   0.0000000000E+00  0.  1
       21   -1    0    0  501  502   0.0000000000E+00   0.0000000000E+00  -3.0470830906E+01   3.0470830906E+01   0.0000000000E+00  0.  1
       25    1    1    2    0    0   1.2035643186E+02   3.3262519812E+00   1.0236917238E+03   1.0382998025E+03   1.2500000000E+02  0.  0
       25    1    1    2    0    0  -1.2035643186E+02  -3.3262519812E+00   3.0188614703E+02   3.4821973007E+02   1.2500000000E+02  0.  0
</event>
<event>
 4   0  0.3991300E-04  0.6579583E+03  0.7818609E-02  0.9791960E-01
       21   -1    0    0  502  501   0.0000000000E+00   0.0000000000E+00   9.0503833547E+00   9.0503833547E+00   0.0000000000E+00  0.  1
       21   -1    0    0  501  502   0.0000000000E+00   0.0000000000E+00  -1.1958308036E+04   1.1958308036E+04   0.0000000000E+00  0.  1
       25    1    1    2    0    0   1.9432639688E+02   1.7771646879E+02  -8.7484023988E+03   8.7532574179E+03   1.2500000000E+02  0.  0
       25    1    1    2    0    0  -1.9432639688E+02  -1.7771646879E+02  -3.2008552537E+03   3.2141010013E+03   1.2500000000E+02  0.  0
</event>
<event>
 4   0  0.3991300E-04  0.4279794E+03  0.7818609E-02  0.1034500E+00
       21   -1    0    0  502  501   0.0000000000E+00   0.0000000000E+00   4.1071461056E+03   4.1071461056E+03   0.0000000000E+00  0. -1
       21   -1    0    0  501  502   0.0000000000E+00   0.0000000000E+00  -1.1149248272E+01   1.1149248272E+01   0.0000000000E+00  0. -1
       25    1    1    2    0    0  -6.1503720488E+01   1.1667669228E+02   3.1354187485E+03   3.1406801631E+03   1.2500000000E+02  0.  0
       25    1    1    2    0    0   6.1503720488E+01  -1.1667669228E+02   9.6057810880E+02   9.7761519079E+02   1.2500000000E+02  0.  0
</event>
<event>
 4   0  0.3991300E-04  0.3883977E+03  0.7818609E-02  0.1047873E+00
       21   -1    0    0  502  501   0.0000000000E+00   0.0000000000E+00   2.3639054380E+01   2.3639054380E+01   0.0000000000E+00  0. -1
       21   -1    0    0  501  502   0.0000000000E+00   0.0000000000E+00  -1.5953768731E+03   1.5953768731E+03   0.0000000000E+00  0. -1
       25    1    1    2    0    0   2.1266973809E+01  -8.7862822289E+01  -1.2776052201E+03   1.2868847105E+03   1.2500000000E+02  0.  0
       25    1    1    2    0    0  -2.1266973809E+01   8.7862822289E+01  -2.9413259862E+02   3.3213121697E+02   1.2500000000E+02  0.  0
</event>
<event>
 4   0  0.3991300E-04  0.5540944E+03  0.7818609E-02  0.1000551E+00
       21   -1    0    0  502  501   0.0000000000E+00   0.0000000000E+00   2.0321296017E+01   2.0321296017E+01   0.0000000000E+00  0.  1
       21   -1    0    0  501  502   0.0000000000E+00   0.0000000000E+00  -3.7770789154E+03   3.7770789154E+03   0.0000000000E+00  0.  1
       25    1    1    2    0    0   8.6181657008E+01   2.2794376024E+02  -1.5921334270E+03   1.6155183332E+03   1.2500000000E+02  0.  0
       25    1    1    2    0    0  -8.6181657008E+01  -2.2794376024E+02  -2.1646241924E+03   2.1818818782E+03   1.2500000000E+02  0.  0
</event>
<event>
 4   0  0.3991300E-04  0.4976494E+03  0.7818609E-02  0.1014394E+00
       21   -1    0    0  502  501   0.0000000000E+00   0.0000000000E+00   5.5407324894E+01   5.5407324894E+01   0.0000000000E+00  0.  1
       21   -1    0    0  501  502   0.0000000000E+00   0.0000000000E+00  -1.1174287818E+03   1.1174287818E+03   0.0000000000E+00  0.  1
       25    1    1    2    0    0  -8.5053812534E+01  -1.9720762733E+02  -5.6116796476E+02   6.1372590298E+02   1.2500000000E+02  0.  0
       25    1    1    2    0    0   8.5053812534E+01   1.9720762733E+02  -5.0085349209E+02   5.5911020367E+02   1.2500000000E+02  0.  0
</event>
<event>
 4   0  0.3991300E-04  0.6292056E+03  0.7818609E-02  0.9846600E-01
       21   -1    0    0  502  501   0.0000000000E+00   0.0000000000E+00   1.7877736042E+03   1.7877736042E+03   0.0000000000E+00  0.  1
       21   -1    0    0  501  502   0.0000000000E+00   0.0000000000E+00  -5.5362119231E+01   5.5362119231E+01   0.0000000000E+00  0.  1
       25    1    1    2    0    0  -2.1426118937E+02   1.9134558063E+02   7.8186681516E+02   8.4229549752E+02   1.2500000000E+02  0.  0
       25    1    1    2    0    0   2.1426118937E+02  -1.9134558063E+02   9.5054466982E+02   1.0008402259E+03   1.2500000000E+02  0.  0
</event>
<event>
 4   0  0.3991300E-04  0.4346080E+03  0.7818609E-02  0.1032414E+00
       21   -1    0    0  502  501   0.0000000000E+00   0.0000000000E+00   5.3609650010E+01   5.3609650010E+01   0.0000000000E+00  0. -1
       21   -1    0    0  501  502   0.0000000000E+00   0.0000000000E+00  -8.8083084327E+02   8.8083084327E+02   0.0000000000E+00  0. -1
       25    1    1    2    0    0   8.1733057661E+01  -1.2474008165E+02  -6.2157593340E+02   6.5132328506E+02   1.2500000000E+02  0.  0
       25    1    1    2    0    0  -8.1733057661E+01   1.2474008165E+02  -2.0564525986E+02   2.8311720821E+02   1.2500000000E+02  0.  0
</event>
<event>
 4   0  0.3991300E-04  0.5626692E+03  0.7818609E-02  0.9986033E-01
       21   -1    0    0  502  501   0.0000000000E+00   0.0000000000E+00   9.3155267913E+01   9.3155267913E+01   0.0000000000E+00  0.  1
       21   -1    0    0  501  502   0.0000000000E+00   0.0000000000E+00  -8.4964753743E+02   8.4964753743E+02   0.0000000000E+00  0.  1
       25    1    1    2    0    0   1.5032261030E+02   9.7248690929E+01  -6.7549197000E+02   7.0990745636E+02   1.2500000000E+02  0.  0
       25    1    1    2    0    0  -1.5032261030E+02  -9.7248690929E+01  -8.1000299510E+01   2.3289534898E+02   1.2500000000E+02  0.  0
</event>
<event>
 4   0  0.3991300E-04  0.4480889E+03  0.7818609E-02  0.1028293E+00
       21   -1    0    0  502  501   0.0000000000E+00   0.0000000000E+00   1.5791005969E+02   1.5791005969E+02   0.0000000000E+00  0.  1
       21   -1    0    0  501  502   0.0000000000E+00   0.0000000000E+00  -3.1787655140E+02   3.1787655140E+02   0.0000000000E+00  0.  1
       25    1    1    2    0    0  -1.0755705082E+02  -5.0181144411E+01  -2.3195329027E+02   2.8898788089E+02   1.2500000000E+02  0.  0
       25    1    1    2    0    0   1.0755705082E+02   5.0181144411E+01   7.1986798557E+01   1.8679873020E+02   1.2500000000E+02  0.  0
</event>
<event>
 4   0  0.3991300E-04  0.5832306E+03  0.7818609E-02  0.9940821E-01
       21   -1    0    0  502  501   0.0000000000E+00   0.0000000000E+00   1.7814578172E+02   1.7814578172E+02   0.0000000000E+00  0. -1
       21   -1    0    0  501  502   0.0000000000E+00   0.0000000000E+00  -4.7735900462E+02   4.7735900462E+02   0.0000000000E+00  0. -1
       25    1    1    2    0    0   2.1502301039E+02   3.0911593815E+01  -3.1715773798E+02   4.0423316587E+02   1.2500000000E+02  0.  0
       25    1    1    2    0    0  -2.1502301039E+02  -3.0911593815E+01   1.7944515077E+01   2.5127162047E+02   1.2500000000E+02  0.  0
</event>
<event>
 4   0  0.3991300E-04  0.4423138E+03  0.7818609E-02  0.1030039E+00
       21   -1    0    0  502  501   0.0000000000E+00   0.0000000000E+00   5.8142131120E+01   5.8142131120E+01   0.0000000000E+00  0. -1
       21   -1    0    0  501  502   0.0000000000E+00   0.0000000000E+00  -8.4122087753E+02   8.4122087753E+02   0.0000000000E+00  0. -1
       25    1    1    2    0    0  -1.4007278811E+01   1.8030972830E+02  -4.4040548853E+02   4.9222941431E+02   1.2500000000E+02  0.  0
       25    1    1    2    0    0   1.4007278811E+01  -1.8030972830E+02  -3.4267325788E+02   4.0713359434E+02   1.2500000000E+02  0.  0
</event>
<event>
 4   0  0.3991300E-04  0.3849430E+03  0.7818609E-02  0.1049122E+00
       21   -1    0    0  502  501   0.0000000000E+00   0.0000000000E+00   5.9891294022E+01   5.9891294022E+01   0.0000000000E+00  0. -1
       21   -1    0    0  501  502   0.0000000000E+00   0.0000000000E+00  -6.1854204647E+02   6.1854204647E+02   0.0000000000E+00  0. -1
       25    1    1    2    0    0  -1.9618551468E+01  -1.3308392946E+02  -1.7771328353E+02   2.5554496861E+02   1.2500000000E+02  0.  0
       25    1    1    2    0    0   1.9618551468E+01   1.3308392946E+02  -3.8093746892E+02   4.2288837188E+02   1.2500000000E+02  0.  0
</event>
<event>
 4   0  0.3991300E-04  0.4282961E+03  0.7818609E-02  0.1034400E+00
       21   -1    0    0  502  501   0.0000000000E+00   0.0000000000E+00   2.9172626851E+02   2.9172626851E+02   0.0000000000E+00  0. -1
       21   -1    0    0  501  502   0.0000000000E+00   0.0000000000E+00  -1.5720005916E+02   1.5720005916E+02   0.0000000000E+00  0. -1
       25    1    1    2    0    0  -1.3504801231E+02  -1.0321511275E+02   1.0567616559E+02   2.3597410261E+02   1.2500000000E+02  0.  0
       25    1    1    2    0    0   1.3504801231E+02   1.0321511275E+02   2.8850043755E+01   2.1295222505E+02   1.2500000000E+02  0.  0
</event>
<event>
 4   0  0.3991300E-04  0.4485953E+03  0.7818609E-02  0.1028142E+00
       21   -1    0    0  502  501   0.0000000000E+00   0.0000000000E+00   1.3570870299E+01   1.3570870299E+01   0.0000000000E+00  0.  1
       21   -1    0    0  501  502   0.0000000000E+00   0.0000000000E+00  -3.7071634825E+03   3.7071634825E+03   0.0000000000E+00  0.  1
       25    1    1    2    0    0  -1.4274909168E+01   1.7014396949E+02  -1.2299131364E+03   1.2479840009E+03   1.2500000000E+02  0.  0
       25    1    1    2    0    0   1.4274909168E+01  -1.7014396949E+02  -2.4636794758E+03   2.4727503519E+03   1.2500000000E+02  0.  0
</event>
<event>
 4   0  0.3991300E-04  0.4167650E+03  0.7818609E-02  0.1038124E+00
       21   -1    0    0  502  501   0.0000000000E+00   0.0000000000E+00   5.0976200521E+02   5.0976200521E+02   0.0000000000E+00  0.  1
       21   -1    0    0  501  502   0.0000000000E+00   0.0000000000E+00  -8.5183412514E+01   8.5183412514E+01   0.0000000000E+00  0.  1
       25    1    1    2    0    0   1.3382250340E+02   6.1336190405E+01   3.2403576168E+02   3.7721978410E+02   1.2500000000E+02  0.  0
       25    1    1    2    0    0  -1.3382250340E+02  -6.1336190405E+01   1.0054283102E+02   2.1772563363E+02   1.2500000000E+02  0.  0
</event>
<event>
 4   0  0.3991300E-04  0.3907800E+03  0.7818609E-02  0.1047020E+00
       21   -1    0    0  502  501   0.0000000000E+00   0.0000000000E+00   7.5970601967E+01   7.5970601967E+01   0.0000000000E+00  0.  1
       21   -1    0    0  501  502   0.0000000000E+00   0.0000000000E+00  -5.0252673914E+02   5.0252673914E+02   0.0000000000E+00  0.  1
       25    1    1    2    0    0   7.2095668188E+01   1.2889039755E+02  -1.7296048123E+02   2.5952041927E+02   1.2500000000E+02  0.  0
       25    1    1    2    0    0  -7.2095668188E+01  -1.2889039755E+02  -2.5359565594E+02   3.1897692183E+02   1.2500000000E+02  0.  0
</event>
<event>
 4   0  0.3991300E-04  0.9365318E+03  0.7818609E-02  0.9381033E-01
       21   -1    0    0  502  501   0.0000000000E+00   0.0000000000E+00   4.9048049237E+02   4.9048049237E+02   0.0000000000E+00  0. -1
       21   -1    0    0  501  502   0.0000000000E+00   0.0000000000E+00  -4.4705739621E+02   4.4705739621E+02   0.0000000000E+00  0. -1
       25    1    1    2    0    0   5.2140579503E+01   4.5613582210E+01   4.6811515060E+02   4.8944461702E+02   1.2500000000E+02  0.  0
       25    1    1    2    0    0  -5.2140579503E+01  -4.5613582210E+01  -4.2469205444E+02   4.4809327156E+02   1.2500000000E+02  0.  0
</event>
<event>
 4   0  0.3991300E-04  0.5344038E+03  0.7818609E-02  0.1005170E+00
       21   -1    0    0  502  501   0.0000000000E+00   0.0000000000E+00   1.5808837394E+02   1.5808837394E+02   0.0000000000E+00  0. -1
       21   -1    0    0  501  502   0.0000000000E+00   0.0000000000E+00  -4.5162615958E+02   4.5162615958E+02   0.0000000000E+00  0. -1
       25    1    1    2    0    0  -1.2597951132E+02   1.7568704542E+02  -2.5521720599E+02   3.5706805715E+02   1.2500000000E+02  0.  0
       25    1    1    2    0    0   1.2597951132E+02  -1.7568704542E+02  -3.8320579649E+01   2.5264647638E+02   1.2500000000E+02  0.  0
</event>
<event>
 4   0  0.3991300E-04  0.4237253E+03  0.7818609E-02  0.1035861E+00
       21   -1    0    0  502  501   0.0000000000E+00   0.0000000000E+00   3.4869166133E+01   3.4869166133E+01   0.0000000000E+00  0. -1
       21   -1    0    0  501  502   0.0000000000E+00   0.0000000000E+00  -1.2872628601E+03   1.2872628601E+03   0.0000000000E+00  0. -1
       25    1    1    2    0    0  -2.8291317602E+01   1.4698812964E+02  -8.8453595483E+02   9.0577854042E+02   1.2500000000E+02  0.  0
       25    1    1    2    0    0   2.8291317602E+01  -1.4698812964E+02  -3.6785773916E+02   4.1635348584E+02   1.2500000000E+02  0.  0
</event>
<event>
 4   0  0.3991300E-04  0.5704198E+03  0.7818609E-02  0.9968750E-01
       21   -1    0    0  502  501   0.0000000000E+00   0.0000000000E+00   2.5291374098E+03   2.5291374098E+03   0.0000000000E+00  0.  1
       21   -1    0    0  501  502   0.0000000000E+00   0.0000000000E+00  -3.2163013465E+01   3.2163013465E+01   0.0000000000E+00  0.  1
       25    1    1    2    0    0  -6.2741883762E+01   2.3559181912E+02   8.9266501403E+02   9.3376435812E+02   1.2500000000E+02  0.  0
       25    1    1    2    0    0   6.2741883762E+01  -2.3559181912E+02   1.6043093824E+03   1.6275360652E+03   1.2500000000E+02  0.  0
</event>
<event>
 4   0  0.3991300E-04  0.5546373E+03  0.7818609E-02  0.1000426E+00
       21   -1    0    0  502  501   0.0000000000E+00   0.0000000000E+00   1.2506257408E+03   1.2506257408E+03   0.0000000000E+00  0.  1
       21   -1    0    0  501  502   0.0000000000E+00   0.0000000000E+00  -6.1493714438E+01   6.1493714438E+01   0.0000000000E+00  0.  1
       25    1    1    2    0    0   1.9971631217E+02  -1.3109629742E+01   2.4993126019E+02   3.4372823939E+02   1.2500000000E+02  0.  0
       25    1    1    2    0    0  -1.9971631217E+02   1.3109629742E+01   9.3920076617E+02   9.6839121584E+02   1.2500000000E+02  0.  0
</event>
<event>
 4   0  0.3991300E-04  0.7136851E+03  0.7818609E-02  0.9694111E-01
       21   -1    0    0  502  501   0.0000000000E+00   0.0000000000E+00   8.9536263364E+01   8.9536263364E+01   0.0000000000E+00  0. -1
       21   -1    0    0  501  502   0.0000000000E+00   0.0000000000E+00  -1.4221789879E+03   1.4221789879E+03   0.0000000000E+00  0. -1
       25    1    1    2    0    0  -9.2997651515E+00   2.3355292090E+02  -1.6026569494E+02   3.0974755119E+02   1.2500000000E+02  0.  0
       25    1    1    2    0    0   9.2997651515E+00  -2.3355292090E+02  -1.1723770296E+03   1.2019677001E+03   1.2500000000E+02  0.  0
</event>
<event>
 4   0  0.3991300E-04  0.4056026E+03  0.7818609E-02  0.1041857E+00
       21   -1    0    0  502  501   0.0000000000E+00   0.0000000000E+00   2.7769731709E+02   2.7769731709E+02   0.0000000000E+00  0. -1
       21   -1    0    0  501  502   0.0000000000E+00   0.0000000000E+00  -1.4810504151E+02   1.4810504151E+02   0.0000000000E+00  0. -1
       25    1    1    2    0    0  -2.0195464958E+01  -1.5826835163E+02   7.1965964293E+01   2.1508330467E+02   1.2500000000E+02  0.  0
       25    1    1    2    0    0   2.0195464958E+01   1.5826835163E+02   5.7626311293E+01   2.1071905392E+02   1.2500000000E+02  0.  0
</event>
<event>
 4   0  0.3991300E-04  0.3476781E+03  0.7818609E-02  0.1063572E+00
       21   -1    0    0  502  501   0.0000000000E+00   0.0000000000E+00   1.5778255935E+01   1.5778255935E+01   0.0000000000E+00  0.  1
       21   -1    0    0  501  502   0.0000000000E+00   0.0000000000E+00  -1.9152945286E+03   1.9152945286E+03   0.0000000000E+00  0.  1
       25    1    1    2    0    0  -2.5914765507E+01  -2.4039153218E+01  -3.0812080342E+02   3.3438433794E+02   1.2500000000E+02  0.  0
       25    1    1    2    0    0   2.5914765507E+01   2.4039153218E+01  -1.5913954693E+03   1.5966884466E+03   1.2500000000E+02  0.  0
</event>
<event>
 4   0  0.3991300E-04  0.4574028E+03  0.7818609E-02  0.1025537E+00
       21   -1    0    0  502  501   0.0000000000E+00   0.0000000000E+00   5.6063765461E+02   5.6063765461E+02   0.0000000000E+00  0.  1
       21   -1    0    0  501  502   0.0000000000E+00   0.0000000000E+00  -9.3294364111E+01   9.3294364111E+01   0.0000000000E+00  0.  1
       25    1    1    2    0    0   1.6932371887E+02  -5.0028012338E+01   3.3975622407E+02   4.0278110133E+02   1.2500000000E+02  0.  0
       25    1    1    2    0    0  -1.6932371887E+02   5.0028012338E+01   1.2758706643E+02   2.5115091739E+02   1.2500000000E+02  0.  0
</event>
<event>
 4   0  0.3991300E-04  0.5452728E+03  0.7818609E-02  0.1002594E+00
       21   -1    0    0  502  501   0.0000000000E+00   0.0000000000E+00   9.8905349631E+02   9.8905349631E+02   0.0000000000E+00  0.  1
       21   -1    0    0  501  502   0.0000000000E+00   0.0000000000E+00  -7.5153284729E+01   7.5153284729E+01   0.0000000000E+00  0.  1
       25    1    1    2    0    0   1.5600384723E+02  -1.8026187809E+02   3.7246006559E+02   4.5954656511E+02   1.2500000000E+02  0.  0
       25    1    1    2    0    0  -1.5600384723E+02   1.8026187809E+02   5.4144014598E+02   6.0466021593E+02   1.2500000000E+02  0.  0
</event>
<event>
 4   0  0.3991300E-04  0.3643340E+03  0.7818609E-02  0.1056881E+00
       21   -1    0    0  502  501   0.0000000000E+00   0.0000000000E+00   2.2045886964E+02   2.2045886964E+02   0.0000000000E+00  0. -1
       21   -1    0    0  501  502   0.0000000000E+00   0.0000000000E+00  -1.5052610637E+02   1.5052610637E+02   0.0000000000E+00  0. -1
       25    1    1    2    0    0   2.4331860770E+01   6.5540899990E+00   1.6743672131E+02   2.1046389521E+02   1.2500000000E+02  0.  0
       25    1    1    2    0    0  -2.4331860770E+01  -6.5540899990E+00  -9.7503958044E+01   1.6052108079E+02   1.2500000000E+02  0.  0
</event>
<event>
 4   0  0.3991300E-04  0.4726356E+03  0.7818609E-02  0.1021179E+00
       21   -1    0    0  502  501   0.0000000000E+00   0.0000000000E+00   2.8470152586E+02   2.8470152586E+02   0.0000000000E+00  0.  1
       21   -1    0    0  501  502   0.0000000000E+00   0.0000000000E+00  -1.9615669741E+02   1.9615669741E+02   0.0000000000E+00  0.  1
       25    1    1    2    0    0   5.7457365551E+01  -9.7694938437E+01   2.1260620604E+02   2.7142595436E+02   1.2500000000E+02  0.  0
       25    1    1    2    0    0  -5.7457365551E+01   9.7694938437E+01  -1.2406137759E+02   2.0943226891E+02   1.2500000000E+02  0.  0
</event>
<event>
 4   0  0.3991300E-04  0.5069900E+03  0.7818609E-02  0.1011970E+00
       21   -1    0    0  502  501   0.0000000000E+00   0.0000000000E+00   1.4113911946E+01   1.4113911946E+01   0.0000000000E+00  0. -1
       21   -1    0    0  501  502   0.0000000000E+00   0.0000000000E+00  -4.5529341184E+03   4.5529341184E+03   0.0000000000E+00  0. -1
       25    1    1    2    0    0   2.2809654422E+01  -2.1931216889E+02  -2.2327042054E+03   2.2470449876E+03   1.2500000000E+02  0.  0
       25    1    1    2    0    0  -2.2809654422E+01   2.1931216889E+02  -2.3061160010E+03   2.3200030427E+03   1.2500000000E+02  0.  0
</event>
<event>
 4   0  0.3991300E-04  0.7949007E+03  0.7818609E-02  0.9567428E-01
       21   -1    0    0  502  501   0.0000000000E+00   0.0000000000E+00   1.4731776365E+03   1.4731776365E+03   0.0000000000E+00  0.  1
       21   -1    0    0  501  502   0.0000000000E+00   0.0000000000E+00  -1.0722859688E+02   1.0722859688E+02   0.0000000000E+00  0.  1
       25    1    1    2    0    0   2.1147499024E+02   2.4750234633E+02   3.0384826768E+02   4.6252335369E+02   1.2500000000E+02  0.  0
       25    1    1    2    0    0  -2.1147499024E+02  -2.4750234633E+02   1.0621007720E+03   1.1178828797E+03   1.2500000000E+02  0.  0
</event>
<event>
 4   0  0.3991300E-04  0.5554248E+03  0.7818609E-02  0.1000246E+00
       21   -1    0    0  502  501   0.0000000000E+00   0.0000000000E+00   4.4184181787E+02   4.4184181787E+02   0.0000000000E+00  0.  1
       21   -1    0    0  501  502   0.0000000000E+00   0.0000000000E+00  -1.7455154375E+02   1.7455154375E+02   0.0000000000E+00  0.  1
       25    1    1    2    0    0   1.7567972814E+01  -2.4695691955E+02   1.1784046293E+02   3.0134320713E+02   1.2500000000E+02  0.  0
       25    1    1    2    0    0  -1.7567972814E+01   2.4695691955E+02   1.4944981119E+02   3.1505015449E+02   1.2500000000E+02  0.  0
</event>
<event>
 4   0  0.3991300E-04  0.5916924E+03  0.7818609E-02  0.9922793E-01
       21   -1    0    0  502  501   0.0000000000E+00   0.0000000000E+00   8.3400502374E+01   8.3400502374E+01   0.0000000000E+00  0. -1
       21   -1    0    0  501  502   0.0000000000E+00   0.0000000000E+00  -1.0494536299E+03   1.0494536299E+03   0.0000000000E+00  0. -1
       25    1    1    2    0    0   1.0269693295E+02   1.9726460082E+02  -1.9621989674E+02   3.2184970195E+02   1.2500000000E+02  0.  0
       25    1    1    2    0    0  -1.0269693295E+02  -1.9726460082E+02  -7.6983323076E+02   8.1100443029E+02   1.2500000000E+02  0.  0
</event>
<event>
 4   0  0.3991300E-04  0.3768351E+03  0.7818609E-02  0.1052110E+00
       21   -1    0    0  502  501   0.0000000000E+00   0.0000000000E+00   6.3301077599E+02   6.3301077599E+02   0.0000000000E+00  0. -1
       21   -1    0    0  501  502   0.0000000000E+00   0.0000000000E+00  -5.6083039280E+01   5.6083039280E+01   0.0000000000E+00  0. -1
       25    1    1    2    0    0  -9.6018363682E+00  -1.4012908442E+02   3.1069608883E+02   3.6316031608E+02   1.2500000000E+02  0.  0
       25    1    1    2    0    0   9.6018363682E+00   1.4012908442E+02   2.6623164788E+02   3.2593349919E+02   1.2500000000E+02  0.  0
</event>
<event>
 4   0  0.3991300E-04  0.7228348E+03  0.7818609E-02  0.9678959E-01
       21   -1    0    0  502  501   0.0000000000E+00   0.0000000000E+00   4.3696064136E+02   4.3696064136E+02   0.0000000000E+00  0.  1
       21   -1    0    0  501  502   0.0000000000E+00   0.0000000000E+00  -2.9893432581E+02   2.9893432581E+02   0.0000000000E+00  0.  1
       25    1    1    2    0    0  -2.1828748114E+02   2.4049062940E+02   1.6830672041E+02   3.8657123456E+02   1.2500000000E+02  0.  0
       25    1    1    2    0    0   2.1828748114E+02  -2.4049062940E+02  -3.0280404857E+01   3.4932373262E+02   1.2500000000E+02  0.  0
</event>
<event>
 4   0  0.3991300E-04  0.4817594E+03  0.7818609E-02  0.1018653E+00
       21   -1    0    0  502  501   0.0000000000E+00   0.0000000000E+00   3.2785297760E+01   3.2785297760E+01   0.0000000000E+00  0. -1
       21   -1    0    0  501  502   0.0000000000E+00   0.0000000000E+00  -1.7697880041E+03   1.7697880041E+03   0.0000000000E+00  0. -1
       25    1    1    2    0    0   1.6141321952E+02   4.3741343077E+01  -1.3179740863E+03   1.3344093167E+03   1.2500000000E+02  0.  0
       25    1    1    2    0    0  -1.6141321952E+02  -4.3741343077E+01  -4.1902862014E+02   4.6816398519E+02   1.2500000000E+02  0.  0
</event>
<event>
 4   0  0.3991300E-04  0.5135376E+03  0.7818609E-02  0.1010305E+00
       21   -1    0    0  502  501   0.0000000000E+00   0.0000000000E+00   9.7792364333E+02   9.7792364333E+02   0.0000000000E+00  0.  1
       21   -1    0    0  501  502   0.0000000000E+00   0.0000000000E+00  -6.7418560351E+01   6.7418560351E+01   0.0000000000E+00  0.  1
       25    1    1    2    0    0  -1.7700135462E+02   4.9351774678E+01   1.9346094713E+02   2.9464761201E+02   1.2500000000E+02  0.  0
       25    1    1    2    0    0   1.7700135462E+02  -4.9351774678E+01   7.1704413585E+02   7.5069459167E+02   1.2500000000E+02  0.  0
</event>
<event>
 4   0  0.3991300E-04  0.4510988E+03  0.7818609E-02  0.1027395E+00
       21   -1    0    0  502  501   0.0000000000E+00   0.0000000000E+00   4.1993368523E+03   4.1993368523E+03   0.0000000000E+00  0. -1
       21   -1    0    0  501  502   0.0000000000E+00   0.0000000000E+00  -1.2114422106E+01   1.2114422106E+01   0.0000000000E+00  0. -1
       25    1    1    2    0    0  -1.3567976244E+02   1.2159748385E+02   2.5165831168E+03   2.5262641448E+03   1.2500000000E+02  0.  0
       25    1    1    2    0    0   1.3567976244E+02  -1.2159748385E+02   1.6706393134E+03   1.6851871296E+03   1.2500000000E+02  0.  0
</event>
<event>
 4   0  0.3991300E-04  0.4209550E+03  0.7818609E-02  0.1036756E+00
       21   -1    0    0  502  501   0.0000000000E+00   0.0000000000E+00   1.6735993771E+03   1.6735993771E+03   0.0000000000E+00  0.  1
       21   -1    0    0  501  502   0.0000000000E+00   0.0000000000E+00  -2.6470365502E+01   2.6470365502E+01   0.0000000000E+00  0.  1
       25    1    1    2    0    0   3.1333551864E+01  -3.6279118903E+01   1.6764509820E+02   2.1454100981E+02   1.2500000000E+02  0.  0
       25    1    1    2    0    0  -3.1333551864E+01   3.6279118903E+01   1.4794839134E+03   1.4855287328E+03   1.2500000000E+02  0.  0
</event>
<event>
 4   0  0.3991300E-04  0.4488086E+03  0.7818609E-02  0.1028078E+00
       21   -1    0    0  502  501   0.0000000000E+00   0.0000000000E+00   6.5080013813E+01   6.5080013813E+01   0.0000000000E+00  0.  1
       21   -1    0    0  501  502   0.0000000000E+00   0.0000000000E+00  -7.7377500524E+02   7.7377500524E+02   0.0000000000E+00  0.  1
       25    1    1    2    0    0  -7.7338823112E+01   1.2549142268E+02  -5.6747809754E+02   5.9948793308E+02   1.2500000000E+02  0.  0
       25    1    1    2    0    0   7.7338823112E+01  -1.2549142268E+02  -1.4121689389E+02   2.3936708597E+02   1.2500000000E+02  0.  0
</event>
<event>
 4   0  0.3991300E-04  0.6318964E+03  0.7818609E-02  0.9841355E-01
       21   -1    0    0  502  501   0.0000000000E+00   0.0000000000E+00   6.8590252128E+02   6.8590252128E+02   0.0000000000E+00  0. -1
       21   -1    0    0  501  502   0.0000000000E+00   0.0000000000E+00  -1.4553564559E+02   1.4553564559E+02   0.0000000000E+00  0. -1
       25    1    1    2    0    0  -1.2393938444E+02  -8.4567356498E+01  -5.6612140691E+01   2.0332865827E+02   1.2500000000E+02  0.  0
       25    1    1    2    0    0   1.2393938444E+02   8.4567356498E+01   5.9697901638E+02   6.2810950860E+02   1.2500000000E+02  0.  0
</event>
<event>
 4   0  0.3991300E-04  0.5336838E+03  0.7818609E-02  0.1005343E+00
       21   -1    0    0  502  501   0.0000000000E+00   0.0000000000E+00   2.4347344271E+02   2.4347344271E+02   0.0000000000E+00  0.  1
       21   -1    0    0  501  502   0.0000000000E+00   0.0000000000E+00  -2.9245327186E+02   2.9245327186E+02   0.0000000000E+00  0.  1
       25    1    1    2    0    0  -1.1833456593E+02  -5.2203968626E+01   1.7344574462E+02   2.4987346830E+02   1.2500000000E+02  0.  0
       25    1    1    2    0    0   1.1833456593E+02   5.2203968626E+01  -2.2242557377E+02   2.8605324627E+02   1.2500000000E+02  0.  0
</event>
<event>
 4   0  0.3991300E-04  0.4144473E+03  0.7818609E-02  0.1038889E+00
       21   -1    0    0  502  501   0.0000000000E+00   0.0000000000E+00   3.3450939121E+02   3.3450939121E+02   0.0000000000E+00  0.  1
       21   -1    0    0  501  502   0.0000000000E+00   0.0000000000E+00  -1.2837202659E+02   1.2837202659E+02   0.0000000000E+00  0.  1
       25    1    1    2    0    0   2.6740417099E+01   1.6199075605E+02   8.1860211832E+01   2.2199583157E+02   1.2500000000E+02  0.  0
       25    1    1    2    0    0  -2.6740417099E+01  -1.6199075605E+02   1.2427715279E+02   2.4088558624E+02   1.2500000000E+02  0.  0
</event>
<event>
 4   0  0.3991300E-04  0.5317539E+03  0.7818609E-02  0.1005808E+00
       21   -1    0    0  502  501   0.0000000000E+00   0.0000000000E+00   5.5103031024E+02   5.5103031024E+02   0.0000000000E+00  0. -1
       21   -1    0    0  501  502   0.0000000000E+00   0.0000000000E+00  -1.2828797142E+02   1.2828797142E+02   0.0000000000E+00  0. -1
       25    1    1    2    0    0  -2.2771906855E+02  -5.4620826724E+01   2.3058272869E+02   3.5161456691E+02   1.2500000000E+02  0.  0
       25    1    1    2    0    0   2.2771906855E+02   5.4620826724E+01   1.9215961013E+02   3.2770371475E+02   1.2500000000E+02  0.  0
</event>
<event>
 4   0  0.3991300E-04  0.5723476E+03  0.7818609E-02  0.9964497E-01
       21   -1    0    0  502  501   0.0000000000E+00   0.0000000000E+00   7.4625382514E+02   7.4625382514E+02   0.0000000000E+00  0.  1
       21   -1    0    0  501  502   0.0000000000E+00   0.0000000000E+00  -1.0974206751E+02   1.0974206751E+02   0.0000000000E+00  0.  1
       25    1    1    2    0    0   1.2031946766E+01   2.3824249410E+02   4.6299741310E+02   5.3562660341E+02   1.2500000000E+02  0.  0
       25    1    1    2    0    0  -1.2031946766E+01  -2.3824249410E+02   1.7351434452E+02   3.2036928925E+02   1.2500000000E+02  0.  0
</event>
<event>
 4   0  0.3991300E-04  0.3568989E+03  0.7818609E-02  0.1059819E+00
       21   -1    0    0  502  501   0.0000000000E+00   0.0000000000E+00   3.7833135426E+02   3.7833135426E+02   0.0000000000E+00  0. -1
       21   -1    0    0  501  502   0.0000000000E+00   0.0000000000E+00  -8.4170168572E+01   8.4170168572E+01   0.0000000000E+00  0. -1
       25    1    1    2    0    0  -3.8595521389E+01  -9.1583610833E+01   2.5028124842E+02   2.9688865818E+02   1.2500000000E+02  0.  0
       25    1    1    2    0    0   3.8595521389E+01   9.1583610833E+01   4.3879937269E+01   1.6561286465E+02   1.2500000000E+02  0.  0
</event>
<event>
 4   0  0.3991300E-04  0.3125808E+03  0.7818609E-02  0.1079115E+00
       21   -1    0    0  502  501   0.0000000000E+00   0.0000000000E+00   6.7067366878E+00   6.7067366878E+00   0.0000000000E+00  0. -1
       21   -1    0    0  501  502   0.0000000000E+00   0.0000000000E+00  -3.6421132800E+03   3.6421132800E+03   0.0000000000E+00  0. -1
       25    1    1    2    0    0   2.3938383433E+01  -6.9706330905E+01  -2.4953200717E+03   2.4995358127E+03   1.2500000000E+02  0.  0
       25    1    1    2    0    0  -2.3938383433E+01   6.9706330905E+01  -1.1400864716E+03   1.1492842040E+03   1.2500000000E+02  0.  0
</event>
<event>
 4   0  0.3991300E-04  0.6519051E+03  0.7818609E-02  0.9803211E-01
       21   -1    0    0  502  501   0.0000000000E+00   0.0000000000E+00   3.8689918108E+03   3.8689918108E+03   0.0000000000E+00  0.  1
       21   -1    0    0  501  502   0.0000000000E+00   0.0000000000E+00  -2.7460656198E+01   2.7460656198E+01   0.0000000000E+00  0.  1
       25    1    1    2    0    0  -1.7829768462E+02   2.3993205531E+02   2.1331475505E+03   2.1576146384E+03   1.2500000000E+02  0.  0
       25    1    1    2    0    0   1.7829768462E+02  -2.3993205531E+02   1.7083836041E+03   1.7388378286E+03   1.2500000000E+02  0.  0
</event>
<event>
 4   0  0.3991300E-04  0.5206943E+03  0.7818609E-02  0.1008514E+00
       21   -1    0    0  502  501   0.0000000000E+00   0.0000000000E+00   6.1506465725E+01   6.1506465725E+01   0.0000000000E+00  0.  1
       21   -1    0    0  501  502   0.0000000000E+00   0.0000000000E+00  -1.1020081663E+03   1.1020081663E+03   0.0000000000E+00  0.  1
       25    1    1    2    0    0   1.2426894800E+02  -5.2300556997E+00  -9.4824348725E+02   9.6450030380E+02   1.2500000000E+02  0.  0
       25    1    1    2    0    0  -1.2426894800E+02   5.2300556997E+00  -9.2258213365E+01   1.9901432826E+02   1.2500000000E+02  0.  0
</event>
<event>
 4   0  0.3991300E-04  0.6826011E+03  0.7818609E-02  0.9747458E-01
       21   -1    0    0  502  501   0.0000000000E+00   0.0000000000E+00   2.0630021580E+02   2.0630021580E+02   0.0000000000E+00  0.  1
       21   -1    0    0  501  502   0.0000000000E+00   0.0000000000E+00  -5.6464338408E+02   5.6464338408E+02   0.0000000000E+00  0.  1
       25    1    1    2    0    0  -5.8915444782E+01   1.6617687991E+02  -4.7750809210E+02   5.2414193027E+02   1.2500000000E+02  0.  0
       25    1    1    2    0    0   5.8915444782E+01  -1.6617687991E+02   1.1916492383E+02   2.4680166961E+02   1.2500000000E+02  0.  0
</event>
<event>
 4   0  0.3991300E-04  0.4789397E+03  0.7818609E-02  0.1019427E+00
       21   -1    0    0  502  501   0.0000000000E+00   0.0000000000E+00   1.5644477290E+03   1.5644477290E+03   0.0000000000E+00  0. -1
       21   -1    0    0  501  502   0.0000000000E+00   0.0000000000E+00  -3.6655628559E+01   3.6655628559E+01   0.0000000000E+00  0. -1
       25    1    1    2    0    0  -2.1516284037E+01   7.0791275036E+01   1.2743576972E+02   1.9323361639E+02   1.2500000000E+02  0.  0
       25    1    1    2    0    0   2.1516284037E+01  -7.0791275036E+01   1.4003563307E+03   1.4078697411E+03   1.2500000000E+02  0.  0
</event>
<event>
 4   0  0.3991300E-04  0.3736965E+03  0.7818609E-02  0.1053288E+00
       21   -1    0    0  502  501   0.0000000000E+00   0.0000000000E+00   1.9456201717E+02   1.9456201717E+02   0.0000000000E+00  0. -1
       21   -1    0    0  501  502   0.0000000000E+00   0.0000000000E+00  -1.7944031469E+02   1.7944031469E+02   0.0000000000E+00  0. -1
       25    1    1    2    0    0   1.2988252929E+02   3.8345498406E+01  -2.3244542158E+01   1.8575563895E+02   1.2500000000E+02  0.  0
       25    1    1    2    0    0  -1.2988252929E+02  -3.8345498406E+01   3.8366244640E+01   1.8824669290E+02   1.2500000000E+02  0.  0
</event>
<event>
 4   0  0.3991300E-04  0.8120505E+03  0.7818609E-02  0.9542736E-01
       21   -1    0    0  502  501   0.0000000000E+00   0.0000000000E+00   5.9901653031E+01   5.9901653031E+01   0.0000000000E+00  0. -1
       21   -1    0    0  501  502   0.0000000000E+00   0.0000000000E+00  -2.7521196972E+03   2.7521196972E+03   0.0000000000E+00  0. -1
       25    1    1    2    0    0  -2.2637084057E+02  -6.2155454821E+01  -2.8371209302E+02   3.8887608534E+02   1.2500000000E+02  0.  0
       25    1    1    2    0    0   2.2637084057E+02   6.2155454821E+01  -2.4085059512E+03   2.4231452649E+03   1.2500000000E+02  0.  0
</event>
<event>
 4   0  0.3991300E-04  0.9186962E+03  0.7818609E-02  0.9402507E-01
       21   -1    0    0  502  501   0.0000000000E+00   0.0000000000E+00   9.2327613888E+02   9.2327613888E+02   0.0000000000E+00  0. -1
       21   -1    0    0  501  502   0.0000000000E+00   0.0000000000E+00  -2.2853475716E+02   2.2853475716E+02   0.0000000000E+00  0. -1
       25    1    1    2    0    0   1.1937671450E+02  -3.7960302426E+02   5.8861950327E+02   7.2142024897E+02   1.2500000000E+02  0.  0
       25    1    1    2    0    0  -1.1937671450E+02   3.7960302426E+02   1.0612187845E+02   4.3039064706E+02   1.2500000000E+02  0.  0
</event>
<event>
 4   0  0.3991300E-04  0.3029080E+03  0.7818609E-02  0.1083796E+00
       21   -1    0    0  502  501   0.0000000000E+00   0.0000000000E+00   1.4695583126E+02   1.4695583126E+02   0.0000000000E+00  0.  1
       21   -1    0    0  501  502   0.0000000000E+00   0.0000000000E+00  -1.5608988705E+02   1.5608988705E+02   0.0000000000E+00  0.  1
       25    1    1    2    0    0  -4.4374548354E+01   3.4317203136E+01  -6.9145172498E+01   1.5346929938E+02   1.2500000000E+02  0.  0
       25    1    1    2    0    0   4.4374548354E+01  -3.4317203136E+01   6.0011116700E+01   1.4957641893E+02   1.2500000000E+02  0.  0
</event>
<event>
 4   0  0.3991300E-04  0.4339663E+03  0.7818609E-02  0.1032614E+00
       21   -1    0    0  502  501   0.0000000000E+00   0.0000000000E+00   9.5370539978E+01   9.5370539978E+01   0.0000000000E+00  0.  1
       21   -1    0    0  501  502   0.0000000000E+00   0.0000000000E+00  -4.9367122519E+02   4.9367122519E+02   0.0000000000E+00  0.  1
       25    1    1    2    0    0  -1.6137466377E+02  -4.1869742594E+01  -1.1701323907E+02   2.3898107784E+02   1.2500000000E+02  0.  0
       25    1    1    2    0    0   1.6137466377E+02   4.1869742594E+01  -2.8128744615E+02   3.5006068733E+02   1.2500000000E+02  0.  0
</event>
<event>
 4   0  0.3991300E-04  0.3781168E+03  0.7818609E-02  0.1051632E+00
       21   -1    0    0  502  501   0.0000000000E+00   0.0000000000E+00   2.1456932523E+02   2.1456932523E+02   0.0000000000E+00  0.  1
       21   -1    0    0  501  502   0.0000000000E+00   0.0000000000E+00  -1.6658056372E+02   1.6658056372E+02   0.0000000000E+00  0.  1
       25    1    1    2    0    0  -8.2554892278E+01   5.3572753750E+01   1.2695443982E+02   2.0353815361E+02   1.2500000000E+02  0.  0
       25    1    1    2    0    0   8.2554892278E+01  -5.3572753750E+01  -7.8965678305E+01   1.7761173535E+02   1.2500000000E+02  0.  0
</event>
<event>
 4   0  0.3991300E-04  0.6206186E+03  0.7818609E-02  0.9863529E-01
       21   -1    0    0  502  501   0.0000000000E+00   0.0000000000E+00   2.9059413358E+01   2.9059413358E+01   0.0000000000E+00  0.  1
       21   -1    0    0  501  502   0.0000000000E+00   0.0000000000E+00  -3.3136203275E+03   3.3136203275E+03   0.0000000000E+00  0.  1
       25    1    1    2    0    0   1.0133395172E+02  -1.1333647899E+00  -2.1323158471E+02   2.6713772291E+02   1.2500000000E+02  0.  0
       25    1    1    2    0    0  -1.0133395172E+02   1.1333647899E+00  -3.0713293294E+03   3.0755420179E+03   1.2500000000E+02  0.  0
</event>
<event>
 4   0  0.3991300E-04  0.7646973E+03  0.7818609E-02  0.9612571E-01
       21   -1    0    0  502  501   0.0000000000E+00   0.0000000000E+00   2.9607406949E+01   2.9607406949E+01   0.0000000000E+00  0. -1
       21   -1    0    0  501  502   0.0000000000E+00   0.0000000000E+00  -4.9376329235E+03   4.9376329235E+03   0.0000000000E+00  0.  1
       25    1    1    2    0    0   3.3816726508E+02  -1.1735470689E+02  -2.1333937447E+03   2.1668232730E+03   1.2500000000E+02  0.  0
       25    1    1    2    0    0  -3.3816726508E+02   1.1735470689E+02  -2.7746317718E+03   2.8004170574E+03   1.2500000000E+02  0.  0
</event>
<event>
 4   0  0.3991300E-04  0.5324322E+03  0.7818609E-02  0.1005644E+00
       21   -1    0    0  502  501   0.0000000000E+00   0.0000000000E+00   1.0305975547E+02   1.0305975547E+02   0.0000000000E+00  0.  1
       21   -1    0    0  501  502   0.0000000000E+00   0.0000000000E+00  -6.8766922780E+02   6.8766922780E+02   0.0000000000E+00  0.  1
       25    1    1    2    0    0   9.8603198069E+01   2.1236718214E+02  -2.6173812381E+02   3.7276568535E+02   1.2500000000E+02  0.  0
       25    1    1    2    0    0  -9.8603198069E+01  -2.1236718214E+02  -3.2287134852E+02   4.1796329793E+02   1.2500000000E+02  0.  0
</event>
<event>
 4   0  0.3991300E-04  0.3776249E+03  0.7818609E-02  0.1051815E+00
       21   -1    0    0  502  501   0.0000000000E+00   0.0000000000E+00   5.9021043142E+01   5.9021043142E+01   0.0000000000E+00  0.  1
       21   -1    0    0  501  502   0.0000000000E+00   0.0000000000E+00  -6.0402422846E+02   6.0402422846E+02   0.0000000000E+00  0.  1
       25    1    1    2    0    0  -6.1887649219E+01  -9.4682397268E+00  -4.9674251880E+01   1.4836529240E+02   1.2500000000E+02  0.  0
       25    1    1    2    0    0   6.1887649219E+01   9.4682397268E+00  -4.9532893343E+02   5.1467997920E+02   1.2500000000E+02  0.  0
</event>
<event>
 4   0  0.3991300E-04  0.4265171E+03  0.7818609E-02  0.1034966E+00
       21   -1    0    0  502  501   0.0000000000E+00   0.0000000000E+00   6.8191425344E+02   6.8191425344E+02   0.0000000000E+00  0.  1
       21   -1    0    0  501  502   0.0000000000E+00   0.0000000000E+00  -6.6693450328E+01   6.6693450328E+01   0.0000000000E+00  0.  1
       25    1    1    2    0    0   1.6631602814E+01  -1.0821603390E+02   7.3002652862E+01   1.8149850558E+02   1.2500000000E+02  0.  0
       25    1    1    2    0    0  -1.6631602814E+01   1.0821603390E+02   5.4221815025E+02   5.6710919818E+02   1.2500000000E+02  0.  0
</event>
<event>
 4   0  0.3991300E-04  0.5973602E+03  0.7818609E-02  0.9910898E-01
       21   -1    0    0  502  501   0.0000000000E+00   0.0000000000E+00   1.1870908376E+02   1.1870908376E+02   0.0000000000E+00  0. -1
       21   -1    0    0  501  502   0.0000000000E+00   0.0000000000E+00  -7.5149926157E+02   7.5149926157E+02   0.0000000000E+00  0. -1
       25    1    1    2    0    0  -1.1501463825E+01   2.3536668510E+02  -5.1213801842E+02   5.7744273312E+02   1.2500000000E+02  0.  0
       25    1    1    2    0    0   1.1501463825E+01  -2.3536668510E+02  -1.2065215939E+02   2.9276561221E+02   1.2500000000E+02  0.  0
</event>
<event>
 4   0  0.3991300E-04  0.4498477E+03  0.7818609E-02  0.1027767E+00
       21   -1    0    0  502  501   0.0000000000E+00   0.0000000000E+00   2.0230944719E+01   2.0230944719E+01   0.0000000000E+00  0.  1
       21   -1    0    0  501  502   0.0000000000E+00   0.0000000000E+00  -2.5006613919E+03   2.5006613919E+03   0.0000000000E+00  0.  1
       25    1    1    2    0    0  -1.3083948843E+02  -1.2725876030E+02  -1.0124481292E+03   1.0363348774E+03   1.2500000000E+02  0.  0
       25    1    1    2    0    0   1.3083948843E+02   1.2725876030E+02  -1.4679823180E+03   1.4845574592E+03   1.2500000000E+02  0.  0
</event>
<event>
 4   0  0.3991300E-04  0.4360727E+03  0.7818609E-02  0.1031959E+00
       21   -1    0    0  502  501   0.0000000000E+00   0.0000000000E+00   3.0876610821E+01   3.0876610821E+01   0.0000000000E+00  0.  1
       21   -1    0    0  501  502   0.0000000000E+00   0.0000000000E+00  -1.5396721588E+03   1.5396721588E+03   0.0000000000E+00  0.  1
       25    1    1    2    0    0  -8.9276813783E+01   9.5676949716E+01  -1.1924066275E+03   1.2060609410E+03   1.2500000000E+02  0.  0
       25    1    1    2    0    0   8.9276813783E+01  -9.5676949716E+01  -3.1638892050E+02   3.6448782860E+02   1.2500000000E+02  0.  0
</event>
<event>
 4   0  0.3991300E-04  0.4213232E+03  0.7818609E-02  0.1036637E+00
       21   -1    0    0  502  501   0.0000000000E+00   0.0000000000E+00   5.8629922068E+00   5.8629922068E+00   0.0000000000E+00  0.  1
       21   -1    0    0  501  502   0.0000000000E+00   0.0000000000E+00  -7.5692256169E+03   7.5692256169E+03   0.0000000000E+00  0.  1
       25    1    1    2    0    0  -1.0717230802E+02   6.4023538187E+01  -5.8448690123E+03   5.8475382588E+03   1.2500000000E+02  0.  0
       25    1    1    2    0    0   1.0717230802E+02  -6.4023538187E+01  -1.7184936123E+03   1.7275503503E+03   1.2500000000E+02  0.  0
</event>
<event>
 4   0  0.3991300E-04  0.5883096E+03  0.7818609E-02  0.9929961E-01
       21   -1    0    0  502  501   0.0000000000E+00   0.0000000000E+00   9.9197375348E+02   9.9197375348E+02   0.0000000000E+00  0.  1
       21   -1    0    0  501  502   0.0000000000E+00   0.0000000000E+00  -8.7227150576E+01   8.7227150576E+01   0.0000000000E+00  0.  1
       25    1    1    2    0    0   8.7218829274E+01  -2.4118120320E+02   3.2102972336E+02   4.2948874285E+02   1.2500000000E+02  0.  0
       25    1    1    2    0    0  -8.7218829274E+01   2.4118120320E+02   5.8371687955E+02   6.4971216121E+02   1.2500000000E+02  0.  0
</event>
<event>
 4   0  0.3991300E-04  0.3033883E+03  0.7818609E-02  0.1083559E+00
       21   -1    0    0  502  501   0.0000000000E+00   0.0000000000E+00   1.9901222629E+01   1.9901222629E+01   0.0000000000E+00  0.  1
       21   -1    0    0  501  502   0.0000000000E+00   0.0000000000E+00  -1.1562663968E+03   1.1562663968E+03   0.0000000000E+00  0.  1
       25    1    1    2    0    0  -3.4472145805E+01   7.2302283391E+01  -4.4743084403E+02   4.7141840144E+02   1.2500000000E+02  0.  0
       25    1    1    2    0    0   3.4472145805E+01  -7.2302283391E+01  -6.8893433014E+02   7.0474921800E+02   1.2500000000E+02  0.  0
</event>
<event>
 4   0  0.3991300E-04  0.6738303E+03  0.7818609E-02  0.9763063E-01
       21   -1    0    0  502  501   0.0000000000E+00   0.0000000000E+00   1.1718484392E+01   1.1718484392E+01   0.0000000000E+00  0.  1
       21   -1    0    0  501  502   0.0000000000E+00   0.0000000000E+00  -9.6865606732E+03   9.6865606732E+03   0.0000000000E+00  0. -1
       25    1    1    2    0    0  -6.3051746115E+01  -2.3750729402E+02  -7.6246260207E+03   7.6296089148E+03   1.2500000000E+02  0.  0
       25    1    1    2    0    0   6.3051746115E+01   2.3750729402E+02  -2.0502161680E+03   2.0686702427E+03   1.2500000000E+02  0.  0
</event>
<event>
 4   0  0.3991300E-04  0.3384849E+03  0.7818609E-02  0.1067443E+00
       21   -1    0    0  502  501   0.0000000000E+00   0.0000000000E+00   1.2149675243E+02   1.2149675243E+02   0.0000000000E+00  0. -1
       21   -1    0    0  501  502   0.0000000000E+00   0.0000000000E+00  -2.3575117744E+02   2.3575117744E+02   0.0000000000E+00  0. -1
       25    1    1    2    0    0   6.5545582666E+01   9.0286310805E+01  -3.1925546425E+01   1.7056401098E+02   1.2500000000E+02  0.  0
       25    1    1    2    0    0  -6.5545582666E+01  -9.0286310805E+01  -8.2328878580E+01   1.8668391890E+02   1.2500000000E+02  0.  0
</event>
<event>
 4   0  0.3991300E-04  0.5383045E+03  0.7818609E-02  0.1004238E+00
       21   -1    0    0  502  501   0.0000000000E+00   0.0000000000E+00   2.2497904250E+01   2.2497904250E+01   0.0000000000E+00  0.  1
       21   -1    0    0  501  502   0.0000000000E+00   0.0000000000E+00  -3.2199862698E+03   3.2199862698E+03   0.0000000000E+00  0.  1
       25    1    1    2    0    0   6.5548607575E+01   2.0081419933E+02  -2.2639260116E+03   2.2771932172E+03   1.2500000000E+02  0.  0
       25    1    1    2    0    0  -6.5548607575E+01  -2.0081419933E+02  -9.3356235401E+02   9.6529095688E+02   1.2500000000E+02  0.  0
</event>
<event>
 4   0  0.3991300E-04  0.4953843E+03  0.7818609E-02  0.1014991E+00
       21   -1    0    0  502  501   0.0000000000E+00   0.0000000000E+00   1.8700264972E+02   1.8700264972E+02   0.0000000000E+00  0. -1
       21   -1    0    0  501  502   0.0000000000E+00   0.0000000000E+00  -3.2807771326E+02   3.2807771326E+02   0.0000000000E+00  0. -1
       25    1    1    2    0    0   4.1834078971E+01   1.3743562646E+02  -2.3522619211E+02   3.0264666368E+02   1.2500000000E+02  0.  0
       25    1    1    2    0    0  -4.1834078971E+01  -1.3743562646E+02   9.4151128574E+01   2.1243369929E+02   1.2500000000E+02  0.  0
</event>
<event>
 4   0  0.3991300E-04  0.3809779E+03  0.7818609E-02  0.1050573E+00
       21   -1    0    0  502  501   0.0000000000E+00   0.0000000000E+00   2.1710112745E+03   2.1710112745E+03   0.0000000000E+00  0.  1
       21   -1    0    0  501  502   0.0000000000E+00   0.0000000000E+00  -1.6713890124E+01   1.6713890124E+01   0.0000000000E+00  0.  1
       25    1    1    2    0    0  -4.7114161806E+01   3.9499513962E+01   3.3105533465E+02   3.5916930611E+02   1.2500000000E+02  0.  0
       25    1    1    2    0    0   4.7114161806E+01  -3.9499513962E+01   1.8232420497E+03   1.8285558585E+03   1.2500000000E+02  0.  0
</event>
<event>
 4   0  0.3991300E-04  0.4370192E+03  0.7818609E-02  0.1031665E+00
       21   -1    0    0  502  501   0.0000000000E+00   0.0000000000E+00   5.3045744796E+02   5.3045744796E+02   0.0000000000E+00  0. -1
       21   -1    0    0  501  502   0.0000000000E+00   0.0000000000E+00  -9.0009926961E+01   9.0009926961E+01   0.0000000000E+00  0. -1
       25    1    1    2    0    0  -1.1502093926E+02  -1.3738667441E+02   2.2599463379E+02   3.1433022329E+02   1.2500000000E+02  0.  0
       25    1    1    2    0    0   1.1502093926E+02   1.3738667441E+02   2.1445288721E+02   3.0613715163E+02   1.2500000000E+02  0.  0
</event>
<event>
 4   0  0.3991300E-04  0.3959381E+03  0.7818609E-02  0.1045195E+00
       21   -1    0    0  502  501   0.0000000000E+00   0.0000000000E+00   1.4838295084E+02   1.4838295084E+02   0.0000000000E+00  0.  1
       21   -1    0    0  501  502   0.0000000000E+00   0.0000000000E+00  -2.6412572435E+02   2.6412572435E+02   0.0000000000E+00  0.  1
       25    1    1    2    0    0  -1.1197969175E+02   9.8426061594E+01  -1.9738868999E+01   1.9555501506E+02   1.2500000000E+02  0.  0
       25    1    1    2    0    0   1.1197969175E+02  -9.8426061594E+01  -9.6003904504E+01   2.1695366013E+02   1.2500000000E+02  0.  0
</event>
<event>
 4   0  0.3991300E-04  0.5425843E+03  0.7818609E-02  0.1003225E+00
       21   -1    0    0  502  501   0.0000000000E+00   0.0000000000E+00   1.7040883056E+02   1.7040883056E+02   0.0000000000E+00  0. -1
       21   -1    0    0  501  502   0.0000000000E+00   0.0000000000E+00  -4.3189915296E+02   4.3189915296E+02   0.0000000000E+00  0. -1
       25    1    1    2    0    0   9.1279294853E+01   2.2164537919E+02  -1.5595739618E+02   3.1209981289E+02   1.2500000000E+02  0.  0
       25    1    1    2    0    0  -9.1279294853E+01  -2.2164537919E+02  -1.0553292621E+02   2.9020817063E+02   1.2500000000E+02  0.  0
</event>
<event>
 4   0  0.3991300E-04  0.1130809E+04  0.7818609E-02  0.9175673E-01
       21   -1    0    0  502  501   0.0000000000E+00   0.0000000000E+00   2.5636805136E+03   2.5636805136E+03   0.0000000000E+00  0.  1
       21   -1    0    0  501  502   0.0000000000E+00   0.0000000000E+00  -1.2469663122E+02   1.2469663122E+02   0.0000000000E+00  0.  1
       25    1    1    2    0    0  -1.9608293311E+02  -3.2653209450E+02   2.1674296068E+03   2.2041887001E+03   1.2500000000E+02  0.  0
       25    1    1    2    0    0   1.9608293311E+02   3.2653209450E+02   2.7155427566E+02   4.8418844475E+02   1.2500000000E+02  0.  0
</event>
<event>
 4   0  0.3991300E-04  0.9330344E+03  0.7818609E-02  0.9385204E-01
       21   -1    0    0  502  501   0.0000000000E+00   0.0000000000E+00   1.1343995940E+03   1.1343995940E+03   0.0000000000E+00  0. -1
       21   -1    0    0  501  502   0.0000000000E+00   0.0000000000E+00  -1.9185330601E+02   1.9185330601E+02   0.0000000000E+00  0. -1
       25    1    1    2    0    0  -8.5108877106E+01   3.8651164324E+01   1.0961831873E+03   1.1072398176E+03   1.2500000000E+02  0.  0
       25    1    1    2    0    0   8.5108877106E+01  -3.8651164324E+01  -1.5363689930E+02   2.1901308247E+02   1.2500000000E+02  0.  0
</event>
<event>
 4   0  0.3991300E-04  0.5649275E+03  0.7818609E-02  0.9980967E-01
       21   -1    0    0  502  501   0.0000000000E+00   0.0000000000E+00   1.7884750382E+03   1.7884750382E+03   0.0000000000E+00  0. -1
       21   -1    0    0  501  502   0.0000000000E+00   0.0000000000E+00  -4.4611065883E+01   4.4611065883E+01   0.0000000000E+00  0. -1
       25    1    1    2    0    0  -1.5434162889E+02   2.8442385019E+01   2.2678879585E+02   3.0280103302E+02   1.2500000000E+02  0.  0
       25    1    1    2    0    0   1.5434162889E+02  -2.8442385019E+01   1.5170751765E+03   1.5302850711E+03   1.2500000000E+02  0.  0
</event>
<event>
 4   0  0.3991300E-04  0.4722669E+03  0.7818609E-02  0.1021282E+00
       21   -1    0    0  502  501   0.0000000000E+00   0.0000000000E+00   7.5822928831E+01   7.5822928831E+01   0.0000000000E+00  0. -1
       21   -1    0    0  501  502   0.0000000000E+00   0.0000000000E+00  -7.3538440466E+02   7.3538440466E+02   0.0000000000E+00  0. -1
       25    1    1    2    0    0   9.9205799412E+01   3.9804463963E+01  -3.8746258358E+01   1.6897472747E+02   1.2500000000E+02  0.  0
       25    1    1    2    0    0  -9.9205799412E+01  -3.9804463963E+01  -6.2081521747E+02   6.4223260602E+02   1.2500000000E+02  0.  0
</event>
<event>
 4   0  0.3991300E-04  0.5490446E+03  0.7818609E-02  0.1001715E+00
       21   -1    0    0  502  501   0.0000000000E+00   0.0000000000E+00   2.6608978138E+02   2.6608978138E+02   0.0000000000E+00  0.  1
       21   -1    0    0  501  502   0.0000000000E+00   0.0000000000E+00  -2.8322200428E+02   2.8322200428E+02   0.0000000000E+00  0.  1
       25    1    1    2    0    0   8.2288035406E+01  -2.1948778649E+02  -7.7818816313E+01   2.7681578236E+02   1.2500000000E+02  0.  0
       25    1    1    2    0    0  -8.2288035406E+01   2.1948778649E+02   6.0686593413E+01   2.7249600329E+02   1.2500000000E+02  0.  0
</event>
<event>
 4   0  0.3991300E-04  0.3562506E+03  0.7818609E-02  0.1060078E+00
       21   -1    0    0  502  501   0.0000000000E+00   0.0000000000E+00   4.0537220654E+02   4.0537220654E+02   0.0000000000E+00  0.  1
       21   -1    0    0  501  502   0.0000000000E+00   0.0000000000E+00  -7.8270343037E+01   7.8270343037E+01   0.0000000000E+00  0.  1
       25    1    1    2    0    0  -4.4535195346E+01  -2.7378853220E+01   3.2053115529E+02   3.4799167625E+02   1.2500000000E+02  0.  0
       25    1    1    2    0    0   4.4535195346E+01   2.7378853220E+01   6.5707082133E+00   1.3565087333E+02   1.2500000000E+02  0.  0
</event>
<event>
 4   0  0.3991300E-04  0.4321954E+03  0.7818609E-02  0.1033169E+00
       21   -1    0    0  502  501   0.0000000000E+00   0.0000000000E+00   6.7963882539E+01   6.7963882539E+01   0.0000000000E+00  0. -1
       21   -1    0    0  501  502   0.0000000000E+00   0.0000000000E+00  -6.8710345539E+02   6.8710345539E+02   0.0000000000E+00  0.  1
       25    1    1    2    0    0  -1.2934439466E+02  -8.3639807290E+01  -1.5981554411E+02   2.5473829302E+02   1.2500000000E+02  0.  0
       25    1    1    2    0    0   1.2934439466E+02   8.3639807290E+01  -4.5932402874E+02   5.0032904490E+02   1.2500000000E+02  0.  0
</event>
<event>
 4   0  0.3991300E-04  0.1252308E+04  0.7818609E-02  0.9068265E-01
       21   -1    0    0  502  501   0.0000000000E+00   0.0000000000E+00   2.8668126867E+03   2.8668126867E+03   0.0000000000E+00  0.  1
       21   -1    0    0  501  502   0.0000000000E+00   0.0000000000E+00  -1.3676115852E+02   1.3676115852E+02   0.0000000000E+00  0. -1
       25    1    1    2    0    0   2.2010014937E+01   4.7877688793E+02   2.2837591692E+03   2.3368552998E+03   1.2500000000E+02  0.  0
       25    1    1    2    0    0  -2.2010014937E+01  -4.7877688793E+02   4.4629235900E+02   6.6671854547E+02   1.2500000000E+02  0.  0
</event>
<event>
 4   0  0.3991300E-04  0.4175329E+03  0.7818609E-02  0.1037872E+00
       21   -1    0    0  502  501   0.0000000000E+00   0.0000000000E+00   5.9171754826E+01   5.9171754826E+01   0.0000000000E+00  0.  1
       21   -1    0    0  501  502   0.0000000000E+00   0.0000000000E+00  -7.3655817092E+02   7.3655817092E+02   0.0000000000E+00  0.  1
       25    1    1    2    0    0  -8.4253415563E+01   9.7704445251E+01  -5.4140367665E+02   5.7042767968E+02   1.2500000000E+02  0.  0
       25    1    1    2    0    0   8.4253415563E+01  -9.7704445251E+01  -1.3598273945E+02   2.2530224607E+02   1.2500000000E+02  0.  0
</event>
<event>
 4   0  0.3991300E-04  0.8682544E+03  0.7818609E-02  0.9466159E-01
       21   -1    0    0  502  501   0.0000000000E+00   0.0000000000E+00   4.2573056143E+02   4.2573056143E+02   0.0000000000E+00  0.  1
       21   -1    0    0  501  502   0.0000000000E+00   0.0000000000E+00  -4.4268939432E+02   4.4268939432E+02   0.0000000000E+00  0.  1
       25    1    1    2    0    0   2.7861907134E+00  -3.1252680438E+02   2.6572727946E+02   4.2885516596E+02   1.2500000000E+02  0.  0
       25    1    1    2    0    0  -2.7861907134E+00   3.1252680438E+02  -2.8268611235E+02   4.3956478980E+02   1.2500000000E+02  0.  0
</event>
<event>
 4   0  0.3991300E-04  0.7975136E+03  0.7818609E-02  0.9563623E-01
       21   -1    0    0  502  501   0.0000000000E+00   0.0000000000E+00   6.2496222843E+02   6.2496222843E+02   0.0000000000E+00  0.  1
       21   -1    0    0  501  502   0.0000000000E+00   0.0000000000E+00  -2.5442655511E+02   2.5442655511E+02   0.0000000000E+00  0.  1
       25    1    1    2    0    0   1.0001770253E+02   3.5771245136E+02   1.0408720831E+02   4.0548845312E+02   1.2500000000E+02  0.  0
       25    1    1    2    0    0  -1.0001770253E+02  -3.5771245136E+02   2.6644846500E+02   4.7390033043E+02   1.2500000000E+02  0.  0
</event>
<event>
 4   0  0.3991300E-04  0.3357545E+03  0.7818609E-02  0.1068619E+00
       21   -1    0    0  502  501   0.0000000000E+00   0.0000000000E+00   6.5858525989E+01   6.5858525989E+01   0.0000000000E+00  0.  1
       21   -1    0    0  501  502   0.0000000000E+00   0.0000000000E+00  -4.2792904548E+02   4.2792904548E+02   0.0000000000E+00  0.  1
       25    1    1    2    0    0   9.7285274662E+01  -5.4808505159E+01  -1.6713135934E+02   2.3669872872E+02   1.2500000000E+02  0.  0
       25    1    1    2    0    0  -9.7285274662E+01   5.4808505159E+01  -1.9493916015E+02   2.5708884274E+02   1.2500000000E+02  0.  0
</event>
<event>
 4   0  0.3991300E-04  0.3474246E+03  0.7818609E-02  0.1063677E+00
       21   -1    0    0  502  501   0.0000000000E+00   0.0000000000E+00   3.2907076321E+03   3.2907076321E+03   0.0000000000E+00  0. -1
       21   -1    0    0  501  502   0.0000000000E+00   0.0000000000E+00  -9.1700529011E+00   9.1700529011E+00   0.0000000000E+00  0. -1
       25    1    1    2    0    0  -5.6331665598E+01   1.0106827072E+02   1.9646684915E+03   1.9720383701E+03   1.2500000000E+02  0.  0
       25    1    1    2    0    0   5.6331665598E+01  -1.0106827072E+02   1.3168690877E+03   1.3278393148E+03   1.2500000000E+02  0.  0
</event>
<event>
 4   0  0.3991300E-04  0.5038782E+03  0.7818609E-02  0.1012772E+00
       21   -1    0    0  502  501   0.0000000000E+00   0.0000000000E+00   2.1193432977E+03   2.1193432977E+03   0.0000000000E+00  0.  1
       21   -1    0    0  501  502   0.0000000000E+00   0.0000000000E+00  -2.9949518802E+01   2.9949518802E+01   0.0000000000E+00  0.  1
       25    1    1    2    0    0  -1.5844014431E+02   1.1256464970E+02   1.4728272150E+03   1.4908450908E+03   1.2500000000E+02  0.  0
       25    1    1    2    0    0   1.5844014431E+02  -1.1256464970E+02   6.1656656392E+02   6.5844772566E+02   1.2500000000E+02  0.  0
</event>
<event>
 4   0  0.3991300E-04  0.3660113E+03  0.7818609E-02  0.1056229E+00
       21   -1    0    0  502  501   0.0000000000E+00   0.0000000000E+00   2.4840288811E+02   2.4840288811E+02   0.0000000000E+00  0.  1
       21   -1    0    0  501  502   0.0000000000E+00   0.0000000000E+00  -1.3482556955E+02   1.3482556955E+02   0.0000000000E+00  0.  1
       25    1    1    2    0    0   1.1669745698E+02   1.7074272680E+01   1.2264601175E+02   2.1113235530E+02   1.2500000000E+02  0.  0
       25    1    1    2    0    0  -1.1669745698E+02  -1.7074272680E+01  -9.0686931982E+00   1.7209610237E+02   1.2500000000E+02  0.  0
</event>
<event>
 4   0  0.3991300E-04  0.5861172E+03  0.7818609E-02  0.9934634E-01
       21   -1    0    0  502  501   0.0000000000E+00   0.0000000000E+00   2.7032687871E+02   2.7032687871E+02   0.0000000000E+00  0. -1
       21   -1    0    0  501  502   0.0000000000E+00   0.0000000000E+00  -3.1770185667E+02   3.1770185667E+02   0.0000000000E+00  0. -1
       25    1    1    2    0    0   1.6893537377E+02   2.0308878168E+02  -4.5533201954E+01   2.9577438401E+02   1.2500000000E+02  0.  0
       25    1    1    2    0    0  -1.6893537377E+02  -2.0308878168E+02  -1.8417760074E+00   2.9225435137E+02   1.2500000000E+02  0.  0
</event>
<event>
 4   0  0.3991300E-04  0.3659892E+03  0.7818609E-02  0.1056237E+00
       21   -1    0    0  502  501   0.0000000000E+00   0.0000000000E+00   1.0688241982E+02   1.0688241982E+02   0.0000000000E+00  0.  1
       21   -1    0    0  501  502   0.0000000000E+00   0.0000000000E+00  -3.1330708612E+02   3.1330708612E+02   0.0000000000E+00  0.  1
       25    1    1    2    0    0   7.6786912967E+01  -1.0432575108E+02  -6.5448508535E+01   1.9154268352E+02   1.2500000000E+02  0.  0
       25    1    1    2    0    0  -7.6786912967E+01   1.0432575108E+02  -1.4097615777E+02   2.2864682242E+02   1.2500000000E+02  0.  0
</event>
<event>
 4   0  0.3991300E-04  0.4948480E+03  0.7818609E-02  0.1015132E+00
       21   -1    0    0  502  501   0.0000000000E+00   0.0000000000E+00   1.6954906090E+03   1.6954906090E+03   0.0000000000E+00  0.  1
       21   -1    0    0  501  502   0.0000000000E+00   0.0000000000E+00  -3.6106740143E+01   3.6106740143E+01   0.0000000000E+00  0.  1
       25    1    1    2    0    0   1.9830193406E+02  -2.2157478177E+01   5.6367916825E+02   6.1087954264E+02   1.2500000000E+02  0.  0
       25    1    1    2    0    0  -1.9830193406E+02   2.2157478177E+01   1.0957047006E+03   1.1207178065E+03   1.2500000000E+02  0.  0
</event>
<event>
 4   0  0.3991300E-04  0.5249320E+03  0.7818609E-02  0.1007469E+00
       21   -1    0    0  502  501   0.0000000000E+00   0.0000000000E+00   1.4029753030E+02   1.4029753030E+02   0.0000000000E+00  0.  1
       21   -1    0    0  501  502   0.0000000000E+00   0.0000000000E+00  -4.9101649311E+02   4.9101649311E+02   0.0000000000E+00  0.  1
       25    1    1    2    0    0   8.5204288982E+01  -1.8630463219E+01   8.1617289812E+01   1.7289663680E+02   1.2500000000E+02  0.  0
       25    1    1    2    0    0  -8.5204288982E+01   1.8630463219E+01  -4.3233625262E+02   4.5841738661E+02   1.2500000000E+02  0.  0
</event>
<event>
 4   0  0.3991300E-04  0.9872809E+03  0.7818609E-02  0.9322606E-01
       21   -1    0    0  502  501   0.0000000000E+00   0.0000000000E+00   2.4755094374E+02   2.4755094374E+02   0.0000000000E+00  0. -1
       21   -1    0    0  501  502   0.0000000000E+00   0.0000000000E+00  -9.8436661095E+02   9.8436661095E+02   0.0000000000E+00  0. -1
       25    1    1    2    0    0   1.1462052986E+02  -5.4451938199E+01   2.0605337304E+02   2.7237083540E+02   1.2500000000E+02  0.  0
       25    1    1    2    0    0  -1.1462052986E+02   5.4451938199E+01  -9.4286904024E+02   9.5954671928E+02   1.2500000000E+02  0.  0
</event>
<event>
 4   0  0.3991300E-04  0.4606534E+03  0.7818609E-02  0.1024592E+00
       21   -1    0    0  502  501   0.0000000000E+00   0.0000000000E+00   6.9440321106E+01   6.9440321106E+01   0.0000000000E+00  0.  1
       21   -1    0    0  501  502   0.0000000000E+00   0.0000000000E+00  -7.6397109013E+02   7.6397109013E+02   0.0000000000E+00  0.  1
       25    1    1    2    0    0   2.3190345522E+01   1.7100663833E+02  -5.0544662955E+02   5.4852744490E+02   1.2500000000E+02  0.  0
       25    1    1    2    0    0  -2.3190345522E+01  -1.7100663833E+02  -1.8908413947E+02   2.8488396634E+02   1.2500000000E+02  0.  0
</event>
<event>
 4   0  0.3991300E-04  0.3464408E+03  0.7818609E-02  0.1064085E+00
       21   -1    0    0  502  501   0.0000000000E+00   0.0000000000E+00   2.2523082859E+02   2.2523082859E+02   0.0000000000E+00  0. -1
       21   -1    0    0  501  502   0.0000000000E+00   0.0000000000E+00  -1.3322025897E+02   1.3322025897E+02   0.0000000000E+00  0. -1
       25    1    1    2    0    0   4.7994463265E+00   1.0615755296E+02  -1.1489552609E+01   1.6446723247E+02   1.2500000000E+02  0.  0
       25    1    1    2    0    0  -4.7994463265E+00  -1.0615755296E+02   1.0350012222E+02   1.9398385509E+02   1.2500000000E+02  0.  0
</event>
<event>
 4   0  0.3991300E-04  0.4193789E+03  0.7818609E-02  0.1037269E+00
       21   -1    0    0  502  501   0.0000000000E+00   0.0000000000E+00   8.3477988041E+01   8.3477988041E+01   0.0000000000E+00  0.  1
       21   -1    0    0  501  502   0.0000000000E+00   0.0000000000E+00  -5.2672178724E+02   5.2672178724E+02   0.0000000000E+00  0.  1
       25    1    1    2    0    0  -1.2571120275E+02   6.5564485816E+01  -3.5372082682E+02   4.0105539720E+02   1.2500000000E+02  0.  0
       25    1    1    2    0    0   1.2571120275E+02  -6.5564485816E+01  -8.9522972377E+01   2.0914437808E+02   1.2500000000E+02  0.  0
</event>
<event>
 4   0  0.3991300E-04  0.4671385E+03  0.7818609E-02  0.1022731E+00
       21   -1    0    0  502  501   0.0000000000E+00   0.0000000000E+00   1.4734026669E+01   1.4734026669E+01   0.0000000000E+00  0.  1
       21   -1    0    0  501  502   0.0000000000E+00   0.0000000000E+00  -3.7026259860E+03   3.7026259860E+03   0.0000000000E+00  0.  1
       25    1    1    2    0    0   4.2911000520E+01   1.9257025977E+02  -1.8616169929E+03   1.8762109389E+03   1.2500000000E+02  0.  0
       25    1    1    2    0    0  -4.2911000520E+01  -1.9257025977E+02  -1.8262749664E+03   1.8411490738E+03   1.2500000000E+02  0.  0
</event>
<event>
 4   0  0.3991300E-04  0.5821208E+03  0.7818609E-02  0.9943210E-01
       21   -1    0    0  502  501   0.0000000000E+00   0.0000000000E+00   3.2039907734E+01   3.2039907734E+01   0.0000000000E+00  0. -1
       21   -1    0    0  501  502   0.0000000000E+00   0.0000000000E+00  -2.6440822935E+03   2.6440822935E+03   0.0000000000E+00  0. -1
       25    1    1    2    0    0   1.0077884868E+02  -1.4660887636E+02  -4.1648358748E+02   4.6982349623E+02   1.2500000000E+02  0.  0
       25    1    1    2    0    0  -1.0077884868E+02   1.4660887636E+02  -2.1955587983E+03   2.2062987050E+03   1.2500000000E+02  0.  0
</event>
<event>
 4   0  0.3991300E-04  0.4884353E+03  0.7818609E-02  0.1016842E+00
       21   -1    0    0  502  501   0.0000000000E+00   0.0000000000E+00   2.8327384482E+02   2.8327384482E+02   0.0000000000E+00  0.  1
       21   -1    0    0  501  502   0.0000000000E+00   0.0000000000E+00  -2.1054631741E+02   2.1054631741E+02   0.0000000000E+00  0.  1
       25    1    1    2    0    0  -5.4463461893E+01   3.8240554580E+01   2.3752631662E+02   2.7653636250E+02   1.2500000000E+02  0.  0
       25    1    1    2    0    0   5.4463461893E+01  -3.8240554580E+01  -1.6479878922E+02   2.1728379973E+02   1.2500000000E+02  0.  0
</event>
<event>
 4   0  0.3991300E-04  0.4529787E+03  0.7818609E-02  0.1026837E+00
       21   -1    0    0  502  501   0.0000000000E+00   0.0000000000E+00   1.6105889253E+01   1.6105889253E+01   0.0000000000E+00  0. -1
       21   -1    0    0  501  502   0.0000000000E+00   0.0000000000E+00  -3.1850100527E+03   3.1850100527E+03   0.0000000000E+00  0. -1
       25    1    1    2    0    0   3.5413954482E+01  -1.8537886202E+02  -1.6358742719E+03   1.6514627165E+03   1.2500000000E+02  0.  0
       25    1    1    2    0    0  -3.5413954482E+01   1.8537886202E+02  -1.5330298916E+03   1.5496532254E+03   1.2500000000E+02  0.  0
</event>
<event>
 4   0  0.3991300E-04  0.4842582E+03  0.7818609E-02  0.1017971E+00
       21   -1    0    0  502  501   0.0000000000E+00   0.0000000000E+00   2.1495127895E+02   2.1495127895E+02   0.0000000000E+00  0. -1
       21   -1    0    0  501  502   0.0000000000E+00   0.0000000000E+00  -2.7274322009E+02   2.7274322009E+02   0.0000000000E+00  0. -1
       25    1    1    2    0    0  -1.7913193032E+02  -9.8306021006E+01   6.6985935811E+00   2.3962928323E+02   1.2500000000E+02  0.  0
       25    1    1    2    0    0   1.7913193032E+02   9.8306021006E+01  -6.4490534714E+01   2.4806521581E+02   1.2500000000E+02  0.  0
</event>
<event>
 4   0  0.3991300E-04  0.4894755E+03  0.7818609E-02  0.1016563E+00
       21   -1    0    0  502  501   0.0000000000E+00   0.0000000000E+00   2.9502000663E+02   2.9502000663E+02   0.0000000000E+00  0. -1
       21   -1    0    0  501  502   0.0000000000E+00   0.0000000000E+00  -2.0302540947E+02   2.0302540947E+02   0.0000000000E+00  0. -1
       25    1    1    2    0    0  -6.6362365802E+01  -1.2067294711E+02   2.0785994255E+02   2.7892056123E+02   1.2500000000E+02  0.  0
       25    1    1    2    0    0   6.6362365802E+01   1.2067294711E+02  -1.1586534539E+02   2.1912485487E+02   1.2500000000E+02  0.  0
</event>
<event>
 4   0  0.3991300E-04  0.3101317E+03  0.7818609E-02  0.1080283E+00
       21   -1    0    0  502  501   0.0000000000E+00   0.0000000000E+00   1.3839586140E+01   1.3839586140E+01   0.0000000000E+00  0. -1
       21   -1    0    0  501  502   0.0000000000E+00   0.0000000000E+00  -1.7374381694E+03   1.7374381694E+03   0.0000000000E+00  0. -1
       25    1    1    2    0    0  -4.2367260826E+01  -6.0466287177E+01  -5.5409500743E+02   5.7279789973E+02   1.2500000000E+02  0.  0
       25    1    1    2    0    0   4.2367260826E+01   6.0466287177E+01  -1.1695035759E+03   1.1784798559E+03   1.2500000000E+02  0.  0
</event>
<event>
 4   0  0.3991300E-04  0.6239699E+03  0.7818609E-02  0.9856887E-01
       21   -1    0    0  502  501   0.0000000000E+00   0.0000000000E+00   2.4988735686E+02   2.4988735686E+02   0.0000000000E+00  0. -1
       21   -1    0    0  501  502   0.0000000000E+00   0.0000000000E+00  -3.8951400279E+02   3.8951400279E+02   0.0000000000E+00  0. -1
       25    1    1    2    0    0   1.3220817774E+02  -7.6532073493E+01  -3.1739449465E+02   3.7376520139E+02   1.2500000000E+02  0.  0
       25    1    1    2    0    0  -1.3220817774E+02   7.6532073493E+01   1.7776784872E+02   2.6563615826E+02   1.2500000000E+02  0.  0
</event>
<event>
 4   0  0.3991300E-04  0.3786692E+03  0.7818609E-02  0.1051427E+00
       21   -1    0    0  502  501   0.0000000000E+00   0.0000000000E+00   1.5251324455E+02   1.5251324455E+02   0.0000000000E+00  0.  1
       21   -1    0    0  501  502   0.0000000000E+00   0.0000000000E+00  -2.3504575326E+02   2.3504575326E+02   0.0000000000E+00  0.  1
       25    1    1    2    0    0  -3.0491082703E+01   3.7465347255E+01   9.5624366449E+01   1.6462799831E+02   1.2500000000E+02  0.  0
       25    1    1    2    0    0   3.0491082703E+01  -3.7465347255E+01  -1.7815687516E+02   2.2293099950E+02   1.2500000000E+02  0.  0
</event>
<event>
 4   0  0.3991300E-04  0.3794067E+03  0.7818609E-02  0.1051153E+00
       21   -1    0    0  502  501   0.0000000000E+00   0.0000000000E+00   1.1798061249E+01   1.1798061249E+01   0.0000000000E+00  0. -1
       21   -1    0    0  501  502   0.0000000000E+00   0.0000000000E+00  -3.0502781236E+03   3.0502781236E+03   0.0000000000E+00  0. -1
       25    1    1    2    0    0   5.2675675340E+01  -1.1213629118E+02  -9.4780895139E+02   9.6401041639E+02   1.2500000000E+02  0.  0
       25    1    1    2    0    0  -5.2675675340E+01   1.1213629118E+02  -2.0906711109E+03   2.0980657684E+03   1.2500000000E+02  0.  0
</event>
<event>
 4   0  0.3991300E-04  0.3694225E+03  0.7818609E-02  0.1054914E+00
       21   -1    0    0  502  501   0.0000000000E+00   0.0000000000E+00   1.9294520456E+03   1.9294520456E+03   0.0000000000E+00  0. -1
       21   -1    0    0  501  502   0.0000000000E+00   0.0000000000E+00  -1.7682863736E+01   1.7682863736E+01   0.0000000000E+00  0. -1
       25    1    1    2    0    0  -7.6003603123E+01  -3.5917207566E+01   3.9246479296E+02   4.2038102621E+02   1.2500000000E+02  0.  0
       25    1    1    2    0    0   7.6003603123E+01   3.5917207566E+01   1.5193043889E+03   1.5267538831E+03   1.2500000000E+02  0.  0
</event>
<event>
 4   0  0.3991300E-04  0.3268915E+03  0.7818609E-02  0.1072521E+00
       21   -1    0    0  502  501   0.0000000000E+00   0.0000000000E+00   5.5470527812E+01   5.5470527812E+01   0.0000000000E+00  0. -1
       21   -1    0    0  501  502   0.0000000000E+00   0.0000000000E+00  -4.8159824562E+02   4.8159824562E+02   0.0000000000E+00  0. -1
       25    1    1    2    0    0  -9.1975784672E+01  -5.0783412289E+01  -2.0132976682E+02   2.5922417892E+02   1.2500000000E+02  0.  0
       25    1    1    2    0    0   9.1975784672E+01   5.0783412289E+01  -2.2479795099E+02   2.7784459451E+02   1.2500000000E+02  0.  0
</event>
<event>
 4   0  0.3991300E-04  0.6542031E+03  0.7818609E-02  0.9798924E-01
       21   -1    0    0  502  501   0.0000000000E+00   0.0000000000E+00   1.7860858893E+02   1.7860858893E+02   0.0000000000E+00  0.  1
       21   -1    0    0  501  502   0.0000000000E+00   0.0000000000E+00  -5.9904977153E+02   5.9904977153E+02   0.0000000000E+00  0.  1
       25    1    1    2    0    0  -1.1000756669E+02   1.0771525807E+01  -5.4465366002E+02   5.6964050055E+02   1.2500000000E+02  0.  0
       25    1    1    2    0    0   1.1000756669E+02  -1.0771525807E+01   1.2421247741E+02   2.0801785992E+02   1.2500000000E+02  0.  0
</event>
<event>
 4   0  0.3991300E-04  0.4828979E+03  0.7818609E-02  0.1018342E+00
       21   -1    0    0  502  501   0.0000000000E+00   0.0000000000E+00   9.1903787743E+02   9.1903787743E+02   0.0000000000E+00  0.  1
       21   -1    0    0  501  502   0.0000000000E+00   0.0000000000E+00  -6.3433280770E+01   6.3433280770E+01   0.0000000000E+00  0.  1
       25    1    1    2    0    0   1.9804005982E+01  -9.5317951228E+01   5.7121529252E+01   1.6842084070E+02   1.2500000000E+02  0.  0
       25    1    1    2    0    0  -1.9804005982E+01   9.5317951228E+01   7.9848306741E+02   8.1405031750E+02   1.2500000000E+02  0.  0
</event>
<event>
 4   0  0.3991300E-04  0.4602781E+03  0.7818609E-02  0.1024701E+00
       21   -1    0    0  502  501   0.0000000000E+00   0.0000000000E+00   1.3627888573E+02   1.3627888573E+02   0.0000000000E+00  0. -1
       21   -1    0    0  501  502   0.0000000000E+00   0.0000000000E+00  -3.8864415455E+02   3.8864415455E+02   0.0000000000E+00  0. -1
       25    1    1    2    0    0  -9.4414363418E+01   1.6064837213E+01  -3.1758370225E+02   3.5448068911E+02   1.2500000000E+02  0.  0
       25    1    1    2    0    0   9.4414363418E+01  -1.6064837213E+01   6.5218433429E+01   1.7044235117E+02   1.2500000000E+02  0.  0
</event>
<event>
 4   0  0.3991300E-04  0.1056262E+04  0.7818609E-02  0.9248903E-01
       21   -1    0    0  502  501   0.0000000000E+00   0.0000000000E+00   1.0757524901E+03   1.0757524901E+03   0.0000000000E+00  0.  1
       21   -1    0    0  501  502   0.0000000000E+00   0.0000000000E+00  -2.5928104183E+02   2.5928104183E+02   0.0000000000E+00  0.  1
       25    1    1    2    0    0  -2.4212368523E+02  -4.2952425716E+02   5.8779403634E+02   7.7732991426E+02   1.2500000000E+02  0.  0
       25    1    1    2    0    0   2.4212368523E+02   4.2952425716E+02   2.2867741195E+02   5.5770361768E+02   1.2500000000E+02  0.  0
</event>
<event>
 4   0  0.3991300E-04  0.5036092E+03  0.7818609E-02  0.1012841E+00
       21   -1    0    0  502  501   0.0000000000E+00   0.0000000000E+00   8.5947395942E+00   8.5947395942E+00   0.0000000000E+00  0.  1
       21   -1    0    0  501  502   0.0000000000E+00   0.0000000000E+00  -7.3772514161E+03   7.3772514161E+03   0.0000000000E+00  0.  1
       25    1    1    2    0    0  -8.2730125825E+01  -1.9639789254E+02  -2.9712388676E+03   2.9814932189E+03   1.2500000000E+02  0.  0
       25    1    1    2    0    0   8.2730125825E+01   1.9639789254E+02  -4.3974178089E+03   4.4043529368E+03   1.2500000000E+02  0.  0
</event>
<event>
 4   0  0.3991300E-04  0.4885549E+03  0.7818609E-02  0.1016810E+00
       21   -1    0    0  502  501   0.0000000000E+00   0.0000000000E+00   5.1774536669E+03   5.1774536669E+03   0.0000000000E+00  0. -1
       21   -1    0    0  501  502   0.0000000000E+00   0.0000000000E+00  -1.1525252902E+01   1.1525252902E+01   0.0000000000E+00  0. -1
       25    1    1    2    0    0   1.9902678394E+02  -3.4812355507E+01   3.1859292346E+03   3.1947759935E+03   1.2500000000E+02  0.  0
       25    1    1    2    0    0  -1.9902678394E+02   3.4812355507E+01   1.9799991794E+03   1.9942029263E+03   1.2500000000E+02  0.  0
</event>
<event>
 4   0  0.3991300E-04  0.4920556E+03  0.7818609E-02  0.1015874E+00
       21   -1    0    0  502  501   0.0000000000E+00   0.0000000000E+00   8.5804295309E+00   8.5804295309E+00   0.0000000000E+00  0. -1
       21   -1    0    0  501  502   0.0000000000E+00   0.0000000000E+00  -7.0543869546E+03   7.0543869546E+03   0.0000000000E+00  0. -1
       25    1    1    2    0    0  -1.9592288121E+01   2.0999995450E+02  -3.8173638498E+03   3.8252288298E+03   1.2500000000E+02  0.  0
       25    1    1    2    0    0   1.9592288121E+01  -2.0999995450E+02  -3.2284426753E+03   3.2377385543E+03   1.2500000000E+02  0.  0
</event>
<event>
 4   0  0.3991300E-04  0.3493248E+03  0.7818609E-02  0.1062893E+00
       21   -1    0    0  502  501   0.0000000000E+00   0.0000000000E+00   1.1890312797E+03   1.1890312797E+03   0.0000000000E+00  0. -1
       21   -1    0    0  501  502   0.0000000000E+00   0.0000000000E+00  -2.5656979183E+01   2.5656979183E+01   0.0000000000E+00  0. -1
       25    1    1    2    0    0   3.7787097478E+01  -9.6153771659E+01   8.0726740176E+02   8.2339484482E+02   1.2500000000E+02  0.  0
       25    1    1    2    0    0  -3.7787097478E+01   9.6153771659E+01   3.5610689871E+02   3.9129341401E+02   1.2500000000E+02  0.  0
</event>
<event>
 4   0  0.3991300E-04  0.4756251E+03  0.7818609E-02  0.1020344E+00
       21   -1    0    0  502  501   0.0000000000E+00   0.0000000000E+00   3.4101178095E+03   3.4101178095E+03   0.0000000000E+00  0.  1
       21   -1    0    0  501  502   0.0000000000E+00   0.0000000000E+00  -1.6584416819E+01   1.6584416819E+01   0.0000000000E+00  0.  1
       25    1    1    2    0    0   1.6617071309E+02   1.1018232010E+02   1.9439353902E+03   1.9581273327E+03   1.2500000000E+02  0.  0
       25    1    1    2    0    0  -1.6617071309E+02  -1.1018232010E+02   1.4495980024E+03   1.4685748936E+03   1.2500000000E+02  0.  0
</event>
<event>
 4   0  0.3991300E-04  0.6032375E+03  0.7818609E-02  0.9898712E-01
       21   -1    0    0  502  501   0.0000000000E+00   0.0000000000E+00   5.3518795109E+02   5.3518795109E+02   0.0000000000E+00  0.  1
       21   -1    0    0  501  502   0.0000000000E+00   0.0000000000E+00  -1.6998487196E+02   1.6998487196E+02   0.0000000000E+00  0.  1
       25    1    1    2    0    0   1.5503202871E+02   1.8506812824E+02   3.3530330004E+02   4.3166937005E+02   1.2500000000E+02  0.  0
       25    1    1    2    0    0  -1.5503202871E+02  -1.8506812824E+02   2.9899779087E+01   2.7350345301E+02   1.2500000000E+02  0.  0
</event>
<event>
 4   0  0.3991300E-04  0.8786897E+03  0.7818609E-02  0.9452620E-01
       21   -1    0    0  502  501   0.0000000000E+00   0.0000000000E+00   1.5224992337E+02   1.5224992337E+02   0.0000000000E+00  0.  1
       21   -1    0    0  501  502   0.0000000000E+00   0.0000000000E+00  -1.2678094894E+03   1.2678094894E+03   0.0000000000E+00  0. -1
       25    1    1    2    0    0   2.1561230402E+02   3.1899838996E+02  -8.3370550580E+02   9.2678935516E+02   1.2500000000E+02  0.  0
       25    1    1    2    0    0  -2.1561230402E+02  -3.1899838996E+02  -2.8185406020E+02   4.9327005757E+02   1.2500000000E+02  0.  0
</event>
<event>
 4   0  0.3991300E-04  0.4670212E+03  0.7818609E-02  0.1022764E+00
       21   -1    0    0  502  501   0.0000000000E+00   0.0000000000E+00   2.1847687443E+03   2.1847687443E+03   0.0000000000E+00  0.  1
       21   -1    0    0  501  502   0.0000000000E+00   0.0000000000E+00  -2.4957876838E+01   2.4957876838E+01   0.0000000000E+00  0.  1
       25    1    1    2    0    0   1.6440056293E+02   9.1883636641E+01   1.3570958813E+03   1.3757922731E+03   1.2500000000E+02  0.  0
       25    1    1    2    0    0  -1.6440056293E+02  -9.1883636641E+01   8.0271498616E+02   8.3393434800E+02   1.2500000000E+02  0.  0
</event>
<event>
 4   0  0.3991300E-04  0.1972078E+04  0.7818609E-02  0.8619787E-01
       21   -1    0    0  502  501   0.0000000000E+00   0.0000000000E+00   2.2299600468E+03   2.2299600468E+03   0.0000000000E+00  0.  1
       21   -1    0    0  501  502   0.0000000000E+00   0.0000000000E+00  -4.3600463337E+02   4.3600463337E+02   0.0000000000E+00  0.  1
       25    1    1    2    0    0   9.0776308846E+02   2.9702842981E+02   6.1216191297E+02   1.1413268246E+03   1.2500000000E+02  0.  0
       25    1    1    2    0    0  -9.0776308846E+02  -2.9702842981E+02   1.1817935005E+03   1.5246378556E+03   1.2500000000E+02  0.  0
</event>
<event>
 4   0  0.3991300E-04  0.3237229E+03  0.7818609E-02  0.1073949E+00
       21   -1    0    0  502  501   0.0000000000E+00   0.0000000000E+00   2.8704302358E+01   2.8704302358E+01   0.0000000000E+00  0. -1
       21   -1    0    0  501  502   0.0000000000E+00   0.0000000000E+00  -9.1272495612E+02   9.1272495612E+02   0.0000000000E+00  0. -1
       25    1    1    2    0    0  -2.5851712999E+01  -2.3524679784E+01  -1.6077100735E+02   2.0662535766E+02   1.2500000000E+02  0.  0
       25    1    1    2    0    0   2.5851712999E+01   2.3524679784E+01  -7.2324964640E+02   7.3480390081E+02   1.2500000000E+02  0.  0
</event>
<event>
 4   0  0.3991300E-04  0.4132435E+03  0.7818609E-02  0.1039288E+00
       21   -1    0    0  502  501   0.0000000000E+00   0.0000000000E+00   1.5522571158E+01   1.5522571158E+01   0.0000000000E+00  0. -1
       21   -1    0    0  501  502   0.0000000000E+00   0.0000000000E+00  -2.7503523873E+03   2.7503523873E+03   0.0000000000E+00  0. -1
       25    1    1    2    0    0   1.3962534550E+02  -6.6762800787E+01  -9.9385711554E+02   1.0135726293E+03   1.2500000000E+02  0.  0
       25    1    1    2    0    0  -1.3962534550E+02   6.6762800787E+01  -1.7409727006E+03   1.7523023292E+03   1.2500000000E+02  0.  0
</event>
<event>
 4   0  0.3991300E-04  0.5448049E+03  0.7818609E-02  0.1002704E+00
       21   -1    0    0  502  501   0.0000000000E+00   0.0000000000E+00   4.6735367940E+02   4.6735367940E+02   0.0000000000E+00  0. -1
       21   -1    0    0  501  502   0.0000000000E+00   0.0000000000E+00  -1.5877291049E+02   1.5877291049E+02   0.0000000000E+00  0. -1
       25    1    1    2    0    0  -1.3774148865E+02   1.2581982394E+02   3.3149668916E+02   4.0039780309E+02   1.2500000000E+02  0.  0
       25    1    1    2    0    0   1.3774148865E+02  -1.2581982394E+02  -2.2915920252E+01   2.2572878681E+02   1.2500000000E+02  0.  0
</event>
<event>
 4   0  0.3991300E-04  0.4522573E+03  0.7818609E-02  0.1027051E+00
       21   -1    0    0  502  501   0.0000000000E+00   0.0000000000E+00   2.8648670109E+01   2.8648670109E+01   0.0000000000E+00  0. -1
       21   -1    0    0  501  502   0.0000000000E+00   0.0000000000E+00  -1.7848705299E+03   1.7848705299E+03   0.0000000000E+00  0. -1
       25    1    1    2    0    0   1.6719981374E+02  -6.1860901908E+01  -6.3332073737E+02   6.6970344577E+02   1.2500000000E+02  0.  0
       25    1    1    2    0    0  -1.6719981374E+02   6.1860901908E+01  -1.1229011224E+03   1.1438157542E+03   1.2500000000E+02  0.  0
</event>
<event>
 4   0  0.3991300E-04  0.5657588E+03  0.7818609E-02  0.9979108E-01
       21   -1    0    0  502  501   0.0000000000E+00   0.0000000000E+00   1.7240880331E+02   1.7240880331E+02   0.0000000000E+00  0. -1
       21   -1    0    0  501  502   0.0000000000E+00   0.0000000000E+00  -4.6413375107E+02   4.6413375107E+02   0.0000000000E+00  0. -1
       25    1    1    2    0    0   1.8143196739E+02   1.4129634368E+02  -2.6658835497E+02   3.7359947341E+02   1.2500000000E+02  0.  0
       25    1    1    2    0    0  -1.8143196739E+02  -1.4129634368E+02  -2.5136592792E+01   2.6294308096E+02   1.2500000000E+02  0.  0
</event>
<event>
 4   0  0.3991300E-04  0.5930771E+03  0.7818609E-02  0.9919874E-01
       21   -1    0    0  502  501   0.0000000000E+00   0.0000000000E+00   4.0026668791E+01   4.0026668791E+01   0.0000000000E+00  0.  1
       21   -1    0    0  501  502   0.0000000000E+00   0.0000000000E+00  -2.1969129074E+03   2.1969129074E+03   0.0000000000E+00  0.  1
       25    1    1    2    0    0   1.5371060722E+01  -1.0501190170E+02  -1.4653538547E+02   2.1991222840E+02   1.2500000000E+02  0.  0
       25    1    1    2    0    0  -1.5371060722E+01   1.0501190170E+02  -2.0103508531E+03   2.0170273478E+03   1.2500000000E+02  0.  0
</event>
<event>
 4   0  0.3991300E-04  0.4213186E+03  0.7818609E-02  0.1036638E+00
       21   -1    0    0  502  501   0.0000000000E+00   0.0000000000E+00   1.8101839301E+02   1.8101839301E+02   0.0000000000E+00  0.  1
       21   -1    0    0  501  502   0.0000000000E+00   0.0000000000E+00  -2.4515380022E+02   2.4515380022E+02   0.0000000000E+00  0.  1
       25    1    1    2    0    0   8.7795014636E+01   1.4113846459E+02   1.8493935483E+00   2.0798185267E+02   1.2500000000E+02  0.  0
       25    1    1    2    0    0  -8.7795014636E+01  -1.4113846459E+02  -6.5984800763E+01   2.1819034056E+02   1.2500000000E+02  0.  0
</event>
</LesHouchesEvents>
