<LesHouchesEvents version="3.0">
<!--
file generated with POWHEG-BOX-V2
Input file powheg.input contained:
! ggHH production parameters:
mtdep 3              ! 0: Higgs effective field theory (HEFT)
!                      1: Born improved HEFT
!                      2: approximated full theory (FTapprox)
!                      3: full theory

hmass 125            ! Higgs boson mass
topmass 173          ! top quark mass (THIS VALUE IS HARD CODED IN THE VIRTUAL
                     ! MATRIX ELEMENT AND FOR CONSISTENCY HAS NOT TO BE CHANGED WHEN
                     ! RUNNING FULL THEORY PREDICTIONS - i.e. mtdep=3)
hdecaymode -1        ! PDG code for Higgs boson decay products (it affects only the SMC)
!                      allowed values are:
!                      0 all decay channels open
!                      1-6 d dbar, u ubar,..., t tbar (as in HERWIG)
!                      7-9 e+ e-, mu+ mu-, tau+ tau-
!                      10  W+W-
!                      11  ZZ
!                      12  gamma gamma
!                      -1  all decay channels closed
cHHH 1.0

! general parameters:
numevts  4000        ! number of events to be generated
ih1         1        ! hadron 1 (1 for protons, -1 for antiprotons)
ih2         1        ! hadron 2 (1 for protons, -1 for antiprotons)
ebeam1 7000d0        ! energy of beam 1
ebeam2 7000d0        ! energy of beam 2
! To be set only if using LHA pdfs
lhans1 90400         ! pdf set for hadron 1 (LHA numbering)
lhans2 90400 	     ! pdf set for hadron 2 (LHA numbering)
! To be set only if using internal mlm pdf
# ndns1 131          ! pdf set for hadron 1 (mlm numbering)
# ndns2 131          ! pdf set for hadron 2 (mlm numbering)
! To be set only if using different pdf sets for the two incoming hadrons
! QCDLambda5 0.25    ! for not equal pdf sets

! Parameters to allow or not the use of stored data
use-old-grid    1    ! if 1 use old grid if file pwggrids.dat is present (<> 1 regenerate)
use-old-ubound  1    ! if 1 use norm of upper bounding function stored in pwgubound.dat, if present;
!
ncall1  10000        ! number of calls for initializing the integration grid
itmx1       1        ! number of iterations for initializing the integration grid
ncall2  20000        ! number of calls for computing the integral and finding upper bound
itmx2       2        ! number of iterations for computing the integral and finding upper bound
foldcsi     1        ! number of folds on csi integration
foldy       1        ! number of folds on  y  integration
foldphi     1        ! number of folds on phi integration
nubound 10000        ! number of bbarra calls to setup norm of upper bounding function
# icsimax   1        ! <= 100, number of csi subdivision when computing the upper bounds
# iymax     1        ! <= 100, number of y subdivision when computing the upper bounds
# xupbound 2d0       ! increase upper bound for radiation generation


! OPTIONAL PARAMETERS

! scale settings:
#fixedscale   1      ! (dafault 0) Use muren = mufac = 2*m_H
facscfact   1d0      ! (default 1d0) fac scale factor: mufact = muref * facscfact
renscfact   1d0      ! (default 1d0) ren scale factor: muren  = muref * renscfact

! Born, plots and powheg strategy:
#bornonly         1  ! (default 0) if 1 do Born only
testplots         1  ! (default 0, do not) do NLO and PWHG distributions
fastbtlbound      1  ! fast evaluation of Btilde upper bounds
storemintupb      1  ! store function calls in binary file for more precise generation
ubexcess_correct  1  ! corrects for error in upper bound estimate
storeinfo_rwgt    1  ! store info to allow for reweighting
softtest          0  ! no check of the soft limit in the real
colltest          0  ! no check of the collinear limit in the real

! PARAMETERS needed for ggHH
hdamp           250

! PARAMETERS for parallel runnning
! -- non parallel (for testing purposes only)
#iseed    547        !  Start the random number generator with seed iseed
#rand1     0         !  skipping  rand2*100000000+rand1 numbers.
#rand2     0         !  (see RM48 short writeup in CERNLIB)

! -- parallel
manyseeds 1          ! Used to perform multiple runs with different random
                     ! seeds in the same directory.
                     ! If set to 1, the program asks for an integer j;
                     ! The file pwgseeds.dat at line j is read, and the
                     ! integer at line j is used to initialize the random
                     ! sequence for the generation of the event.
                     ! The event file is called pwgevents-'j'.lhe
parallelstage  4
xgriditeration 5
maxseeds    9999

! PARAMETERS for reweighting
#rwl_file 'reweight_setup.xml'


! PARAMETERS for Pythia8
#py8tune  xxx
#py8hepmc 1
#py8nohad 1
#py8nompi 1

check_bad_st1 1
check_bad_st2 1

End of powheg.input content
PDF package: lha
 Random number generator initialized with:           26             0             0
-->
<init>
     2212     2212  7.00000E+03  7.00000E+03     -1     -1     -1     -1     -4      1
  3.29707E-02  2.93658E-06  1.00000E+00   9999
</init>
<event>
      5   9999 -3.70600E-02  9.97797E+01 -1.00000E+00  1.23869E-01
      21    -1     0     0   502   501  0.000000000E+00  0.000000000E+00  1.262240917E+03  1.262240917E+03  0.000000000E+00  0.00000E+00  9.000E+00
      -3    -1     0     0     0   502  0.000000000E+00  0.000000000E+00 -1.444692311E+02  1.444692311E+02  0.000000000E+00  0.00000E+00  9.000E+00
      25     1     1     2     0     0 -8.981378899E+01  1.665937190E+02  4.093318755E+02  4.679717600E+02  1.250000000E+02  0.00000E+00  9.000E+00
      25     1     1     2     0     0  4.459635651E+01 -2.555396041E+02  7.696010163E+02  8.217055729E+02  1.250000000E+02  0.00000E+00  9.000E+00
      -3     1     1     2     0   501  4.521743247E+01  8.894588510E+01 -6.116120594E+01  1.170328150E+02  3.162979880E-06  0.00000E+00  9.000E+00
#rwgt            1           1  -5.6126062804422304E-002          26         856           0
</event>
<event>
      5   9999  3.70600E-02  8.18358E+01 -1.00000E+00  1.27873E-01
      21    -1     0     0   502   501  0.000000000E+00  0.000000000E+00  1.886754061E+02  1.886754061E+02  0.000000000E+00  0.00000E+00  9.000E+00
      21    -1     0     0   511   502  0.000000000E+00  0.000000000E+00 -6.194518587E+02  6.194518587E+02  0.000000000E+00  0.00000E+00  9.000E+00
      25     1     1     2     0     0 -1.758951855E+01 -7.602229787E+01 -1.179181946E+02  1.887285923E+02  1.250000000E+02  0.00000E+00  9.000E+00
      25     1     1     2     0     0  4.448791112E+01  1.533112107E+02  8.010616167E+01  2.180034374E+02  1.250000000E+02  0.00000E+00  9.000E+00
      21     1     1     2   511   501 -2.689839256E+01 -7.728891287E+01 -3.929644197E+02  4.013952351E+02  0.000000000E+00  0.00000E+00  9.000E+00
#rwgt            1           1   2.4754184418821996E-002          26        1237           0
</event>
<event>
      5   9999  3.70600E-02  1.99216E+01 -1.00000E+00  1.66507E-01
      21    -1     0     0   512   501  0.000000000E+00  0.000000000E+00  6.826449969E+02  6.826449969E+02  0.000000000E+00  0.00000E+00  9.000E+00
      21    -1     0     0   501   502  0.000000000E+00  0.000000000E+00 -7.502810612E+01  7.502810612E+01  0.000000000E+00  0.00000E+00  9.000E+00
      25     1     1     2     0     0  1.572813088E+02 -7.737039043E+01  3.119056352E+02  3.789903860E+02  1.250000000E+02  0.00000E+00  9.000E+00
      25     1     1     2     0     0 -1.466606626E+02  9.422486896E+01  2.540019694E+02  3.324600372E+02  1.250000000E+02  0.00000E+00  9.000E+00
      21     1     1     2   512   502 -1.062064625E+01 -1.685447854E+01  4.170928620E+01  4.622267981E+01  0.000000000E+00  0.00000E+00  9.000E+00
#rwgt            1           1   2.9574211647196043E-002          26        1399           0
</event>
<event>
      5   9999  3.70600E-02  2.74512E+01 -1.00000E+00  1.55764E-01
       1    -1     0     0   502     0  0.000000000E+00  0.000000000E+00  5.793048158E+02  5.793048158E+02  0.000000000E+00  0.00000E+00  9.000E+00
      21    -1     0     0   501   502  0.000000000E+00  0.000000000E+00 -3.788989043E+02  3.788989043E+02  0.000000000E+00  0.00000E+00  9.000E+00
      25     1     1     2     0     0 -1.332643904E+02  1.120187450E+01 -2.692367552E+02  3.255738167E+02  1.250000000E+02  0.00000E+00  9.000E+00
      25     1     1     2     0     0  1.198296649E+02  1.273717903E+01  1.186733581E+01  1.740322326E+02  1.250000000E+02  0.00000E+00  9.000E+00
       1     1     1     2   501     0  1.343472553E+01 -2.393905353E+01  4.577753309E+02  4.585976709E+02  5.394796609E-06  0.00000E+00  9.000E+00
#rwgt            1           1   2.9035545725456708E-002          26        1918           0
</event>
<event>
      5   9999  3.70600E-02  1.79275E+02 -1.00000E+00  1.13404E-01
      21    -1     0     0   502   511  0.000000000E+00  0.000000000E+00  1.682890358E+02  1.682890358E+02  0.000000000E+00  0.00000E+00  9.000E+00
      21    -1     0     0   501   502  0.000000000E+00  0.000000000E+00 -6.106151946E+02  6.106151946E+02  0.000000000E+00  0.00000E+00  9.000E+00
      25     1     1     2     0     0 -2.291450716E+02  8.040438426E+01 -3.120857456E+02  4.147226078E+02  1.250000000E+02  0.00000E+00  9.000E+00
      25     1     1     2     0     0  8.829508667E+01  3.050419070E+01 -9.106140342E+01  1.806756961E+02  1.250000000E+02  0.00000E+00  9.000E+00
      21     1     1     2   501   511  1.408499849E+02 -1.109085750E+02 -3.917900976E+01  1.835059265E+02  2.654916936E-06  0.00000E+00  9.000E+00
#rwgt            2          11   1.9732107908574052E-003          26        2181           0
</event>
<event>
      5   9999  3.70600E-02  2.27085E+01 -1.00000E+00  1.61940E-01
      21    -1     0     0   502   512  0.000000000E+00  0.000000000E+00  4.532550721E+02  4.532550721E+02  0.000000000E+00  0.00000E+00  9.000E+00
      21    -1     0     0   501   502  0.000000000E+00  0.000000000E+00 -8.611402556E+01  8.611402556E+01  0.000000000E+00  0.00000E+00  9.000E+00
      25     1     1     2     0     0  5.639213401E-01 -1.165522587E+02  1.622186479E+02  2.356366625E+02  1.250000000E+02  0.00000E+00  9.000E+00
      25     1     1     2     0     0  2.072048264E+01  1.244673523E+02  1.164310652E+02  2.123738523E+02  1.250000000E+02  0.00000E+00  9.000E+00
      21     1     1     2   501   512 -2.128440398E+01 -7.915093639E+00  8.849133345E+01  9.135858282E+01  0.000000000E+00  0.00000E+00  9.000E+00
#rwgt            1           1   4.0783677973492714E-002          26        2261           0
</event>
<event>
      5   9999  3.70600E-02  6.85488E+01 -1.00000E+00  1.31681E-01
      21    -1     0     0   511   501  0.000000000E+00  0.000000000E+00  1.544087827E+02  1.544087827E+02  0.000000000E+00  0.00000E+00  9.000E+00
      21    -1     0     0   501   502  0.000000000E+00  0.000000000E+00 -5.321481982E+02  5.321481982E+02  0.000000000E+00  0.00000E+00  9.000E+00
      25     1     1     2     0     0 -2.963467832E+01  3.655419627E+01 -4.494274113E+02  4.688543712E+02  1.250000000E+02  0.00000E+00  9.000E+00
      25     1     1     2     0     0 -3.888401813E+01 -3.452208615E+01  6.033662858E+01  1.482202754E+02  1.250000000E+02  0.00000E+00  9.000E+00
      21     1     1     2   511   502  6.851869645E+01 -2.032110113E+00  1.135136714E+01  6.948233424E+01  8.596304120E-07  0.00000E+00  9.000E+00
#rwgt            1           1   3.5648903395335857E-002          26        2537           0
</event>
<event>
      5   9999  3.70600E-02  1.88159E+02 -1.00000E+00  1.12620E-01
      21    -1     0     0   502   501  0.000000000E+00  0.000000000E+00  1.849811870E+02  1.849811870E+02  0.000000000E+00  0.00000E+00  9.000E+00
       1    -1     0     0   501     0  0.000000000E+00  0.000000000E+00 -1.253133101E+03  1.253133101E+03  0.000000000E+00  0.00000E+00  9.000E+00
      25     1     1     2     0     0  1.913989770E+02 -8.140638534E+01 -1.826840126E+02  3.037416936E+02  1.250000000E+02  0.00000E+00  9.000E+00
      25     1     1     2     0     0 -6.878785462E+01 -6.131802188E+01  6.287714745E+01  1.675416498E+02  1.250000000E+02  0.00000E+00  9.000E+00
       1     1     1     2   502     0 -1.226111224E+02  1.427244072E+02 -9.483450490E+02  9.668309448E+02  1.078959322E-05  0.00000E+00  9.000E+00
#rwgt            1           1   3.8765043527749343E-002          26        2855           0
</event>
<event>
      5   9999  3.70600E-02  5.98589E+01 -1.00000E+00  1.34756E-01
      21    -1     0     0   502   511  0.000000000E+00  0.000000000E+00  2.795797127E+02  2.795797127E+02  0.000000000E+00  0.00000E+00  9.000E+00
      21    -1     0     0   501   502  0.000000000E+00  0.000000000E+00 -2.616510588E+02  2.616510588E+02  0.000000000E+00  0.00000E+00  9.000E+00
      25     1     1     2     0     0 -8.785429689E+01  9.497100655E+01 -1.289292250E+02  2.213269406E+02  1.250000000E+02  0.00000E+00  9.000E+00
      25     1     1     2     0     0  1.033048592E+02 -1.528014947E+02  1.017157190E+02  2.449311703E+02  1.250000000E+02  0.00000E+00  9.000E+00
      21     1     1     2   501   511 -1.545056234E+01  5.783048811E+01  4.514215997E+01  7.497266061E+01  8.259061849E-07  0.00000E+00  9.000E+00
#rwgt            1           1   4.8409616639483455E-002          26        3121           0
</event>
<event>
      5   9999  3.70600E-02  9.41399E+01 -1.00000E+00  1.25017E-01
      21    -1     0     0   502   501  0.000000000E+00  0.000000000E+00  1.196851136E+03  1.196851136E+03  0.000000000E+00  0.00000E+00  9.000E+00
      21    -1     0     0   512   502  0.000000000E+00  0.000000000E+00 -6.146124607E+01  6.146124607E+01  0.000000000E+00  0.00000E+00  9.000E+00
      25     1     1     2     0     0  6.872659128E+01  1.254368000E+02  3.615313026E+02  4.083963980E+02  1.250000000E+02  0.00000E+00  9.000E+00
      25     1     1     2     0     0 -1.561950370E+02 -1.602447985E+02  5.929259252E+02  6.459577678E+02  1.250000000E+02  0.00000E+00  9.000E+00
      21     1     1     2   512   501  8.746844567E+01  3.480799841E+01  1.809326619E+02  2.039582160E+02  0.000000000E+00  0.00000E+00  9.000E+00
#rwgt            1           1   3.2409108155326341E-002          26        3708           0
</event>
<event>
      5   9999 -3.70600E-02  9.51224E+01 -1.00000E+00  1.24811E-01
      21    -1     0     0   511   501  0.000000000E+00  0.000000000E+00  1.172480662E+02  1.172480662E+02  0.000000000E+00  0.00000E+00  9.000E+00
      21    -1     0     0   501   502  0.000000000E+00  0.000000000E+00 -9.517034746E+02  9.517034746E+02  0.000000000E+00  0.00000E+00  9.000E+00
      25     1     1     2     0     0  3.477954182E+01  1.145065454E+02 -3.462906855E+02  3.871222085E+02  1.250000000E+02  0.00000E+00  9.000E+00
      25     1     1     2     0     0 -3.022114214E+01 -2.095196298E+02 -5.250911955E+02  5.797909592E+02  1.250000000E+02  0.00000E+00  9.000E+00
      21     1     1     2   511   502 -4.558399674E+00  9.501308442E+01  3.692647255E+01  1.020383731E+02  4.768371582E-07  0.00000E+00  9.000E+00
#rwgt            1           1 -0.12006733055948472               26        3919           0
</event>
<event>
      5   9999  3.70600E-02  9.72888E+01 -1.00000E+00  1.24365E-01
      21    -1     0     0   502   501  0.000000000E+00  0.000000000E+00  2.917821180E+02  2.917821180E+02  0.000000000E+00  0.00000E+00  9.000E+00
      21    -1     0     0   501   512  0.000000000E+00  0.000000000E+00 -1.190113647E+03  1.190113647E+03  0.000000000E+00  0.00000E+00  9.000E+00
      25     1     1     2     0     0 -1.024130388E+02 -1.201742693E+02  6.301886445E+01  2.110134185E+02  1.250000000E+02  0.00000E+00  9.000E+00
      25     1     1     2     0     0  7.055808844E+01  2.121002243E+02  4.483858437E+01  2.600008608E+02  1.250000000E+02  0.00000E+00  9.000E+00
      21     1     1     2   502   512  3.185495034E+01 -9.192595500E+01 -1.006188978E+03  1.010881486E+03  0.000000000E+00  0.00000E+00  9.000E+00
#rwgt            1           1   4.8426252678018811E-002          26        4766           0
</event>
<event>
      5   9999  3.70600E-02  2.88863E+01 -1.00000E+00  1.54187E-01
      21    -1     0     0   502   511  0.000000000E+00  0.000000000E+00  3.050408153E+02  3.050408153E+02  0.000000000E+00  0.00000E+00  9.000E+00
      21    -1     0     0   501   502  0.000000000E+00  0.000000000E+00 -1.742562105E+02  1.742562105E+02  0.000000000E+00  0.00000E+00  9.000E+00
      25     1     1     2     0     0  1.398830857E+01 -2.805648819E+01 -1.155099979E+02  1.730618356E+02  1.250000000E+02  0.00000E+00  9.000E+00
      25     1     1     2     0     0 -6.425200929E+00  5.593506429E+01  1.394469678E+02  1.955517104E+02  1.250000000E+02  0.00000E+00  9.000E+00
      21     1     1     2   501   511 -7.563107636E+00 -2.787857611E+01  1.068476350E+02  1.106834798E+02  1.348699152E-06  0.00000E+00  9.000E+00
#rwgt            1           1   5.4175014737570415E-002          26        5006           0
</event>
<event>
      5   9999  3.70600E-02  3.37942E+01 -1.00000E+00  1.49530E-01
      21    -1     0     0   512   501  0.000000000E+00  0.000000000E+00  1.128317902E+03  1.128317902E+03  0.000000000E+00  0.00000E+00  9.000E+00
      21    -1     0     0   501   502  0.000000000E+00  0.000000000E+00 -5.052683035E+01  5.052683035E+01  0.000000000E+00  0.00000E+00  9.000E+00
      25     1     1     2     0     0 -2.555134026E+01  1.252787061E+02  2.357948492E+02  2.959253894E+02  1.250000000E+02  0.00000E+00  9.000E+00
      25     1     1     2     0     0  5.836383419E+01 -1.333650381E+02  4.465183615E+02  4.860002240E+02  1.250000000E+02  0.00000E+00  9.000E+00
      21     1     1     2   512   502 -3.281249393E+01  8.086332052E+00  3.954778604E+02  3.969191185E+02  5.394796609E-06  0.00000E+00  9.000E+00
#rwgt            1           1   4.1828122465790263E-002          26        5304           0
</event>
<event>
      5   9999  3.70600E-02  2.60568E+02 -1.00000E+00  1.07618E-01
      21    -1     0     0   502   501  0.000000000E+00  0.000000000E+00  5.326121531E+02  5.326121531E+02  0.000000000E+00  0.00000E+00  9.000E+00
      21    -1     0     0   511   502  0.000000000E+00  0.000000000E+00 -1.331238120E+03  1.331238120E+03  0.000000000E+00  0.00000E+00  9.000E+00
      25     1     1     2     0     0  1.630386886E+02  1.060011622E+02  1.205305252E+02  2.607114648E+02  1.250000000E+02  0.00000E+00  9.000E+00
      25     1     1     2     0     0  9.520051401E+01 -7.124125529E+01  3.056199061E+02  3.509515370E+02  1.250000000E+02  0.00000E+00  9.000E+00
      21     1     1     2   511   501 -2.582392026E+02 -3.475990691E+01 -1.224776398E+03  1.252187271E+03  1.525878906E-05  0.00000E+00  9.000E+00
#rwgt            2          11   3.9905619855922780E-003          26        5495           0
</event>
<event>
      5   9999  3.70600E-02  6.84778E+01 -1.00000E+00  1.31704E-01
      21    -1     0     0   502   501  0.000000000E+00  0.000000000E+00  3.338263034E+02  3.338263034E+02  0.000000000E+00  0.00000E+00  9.000E+00
      21    -1     0     0   512   502  0.000000000E+00  0.000000000E+00 -1.591826662E+02  1.591826662E+02  0.000000000E+00  0.00000E+00  9.000E+00
      25     1     1     2     0     0 -3.105570068E+01 -4.789605319E+01 -3.686106326E+01  1.422751786E+02  1.250000000E+02  0.00000E+00  9.000E+00
      25     1     1     2     0     0  2.923924642E+01  1.163497669E+02  2.218419739E+02  2.814801293E+02  1.250000000E+02  0.00000E+00  9.000E+00
      21     1     1     2   512   501  1.816454262E+00 -6.845371376E+01 -1.033727349E+01  6.925366169E+01  1.594911594E-06  0.00000E+00  9.000E+00
#rwgt            1           1   4.6744617176177512E-002          26        5830           0
</event>
<event>
      5   9999  3.70600E-02  4.60985E+01 -1.00000E+00  1.41117E-01
      21    -1     0     0   511   501  0.000000000E+00  0.000000000E+00  1.970021267E+03  1.970021267E+03  0.000000000E+00  0.00000E+00  9.000E+00
      21    -1     0     0   501   502  0.000000000E+00  0.000000000E+00 -7.279927681E+01  7.279927681E+01  0.000000000E+00  0.00000E+00  9.000E+00
      25     1     1     2     0     0 -2.050748021E+02  1.855131125E+02  1.434333886E+03  1.466086453E+03  1.250000000E+02  0.00000E+00  9.000E+00
      25     1     1     2     0     0  1.597609786E+02 -1.939825324E+02  3.153657278E+02  4.221769007E+02  1.250000000E+02  0.00000E+00  9.000E+00
      21     1     1     2   511   502  4.531382350E+01  8.469419950E+00  1.475223759E+02  1.545571903E+02  1.907348633E-06  0.00000E+00  9.000E+00
#rwgt            1           1   4.5798807581866621E-002          26        6034           0
</event>
<event>
      5   9999  3.70600E-02  9.31780E+01 -1.00000E+00  1.25222E-01
      21    -1     0     0   502   501  0.000000000E+00  0.000000000E+00  4.105035916E+02  4.105035916E+02  0.000000000E+00  0.00000E+00  9.000E+00
      21    -1     0     0   501   512  0.000000000E+00  0.000000000E+00 -3.538839151E+02  3.538839151E+02  0.000000000E+00  0.00000E+00  9.000E+00
      25     1     1     2     0     0 -1.733435321E+02 -1.744545423E+01  3.507424349E+01  2.172729310E+02  1.250000000E+02  0.00000E+00  9.000E+00
      25     1     1     2     0     0  1.262224095E+02  9.783039843E+01  2.372683181E+02  3.121284003E+02  1.250000000E+02  0.00000E+00  9.000E+00
      21     1     1     2   502   512  4.712112261E+01 -8.038494420E+01 -2.157228851E+02  2.349861753E+02  3.814697266E-06  0.00000E+00  9.000E+00
#rwgt            1           1   3.9477780096082347E-002          26        6719           0
</event>
<event>
      5   9999  3.70600E-02  3.26429E+01 -1.00000E+00  1.50533E-01
      21    -1     0     0   502   511  0.000000000E+00  0.000000000E+00  1.937157484E+02  1.937157484E+02  0.000000000E+00  0.00000E+00  9.000E+00
      21    -1     0     0   501   502  0.000000000E+00  0.000000000E+00 -7.742192297E+02  7.742192297E+02  0.000000000E+00  0.00000E+00  9.000E+00
      25     1     1     2     0     0 -1.945639250E+02  3.825952900E+01 -1.533007385E+02  2.800803972E+02  1.250000000E+02  0.00000E+00  9.000E+00
      25     1     1     2     0     0  1.627365832E+02 -4.551075323E+01 -5.352198822E+02  5.750128228E+02  1.250000000E+02  0.00000E+00  9.000E+00
      21     1     1     2   501   511  3.182734184E+01  7.251224226E+00  1.080171394E+02  1.128417580E+02  1.907348633E-06  0.00000E+00  9.000E+00
#rwgt            1           1   3.2685824097373146E-002          26        6864           0
</event>
<event>
      5   9999  3.70600E-02  4.52124E+01 -1.00000E+00  1.41614E-01
      21    -1     0     0   502   501  0.000000000E+00  0.000000000E+00  3.389775742E+02  3.389775742E+02  0.000000000E+00  0.00000E+00  9.000E+00
      21    -1     0     0   512   502  0.000000000E+00  0.000000000E+00 -2.047544991E+02  2.047544991E+02  0.000000000E+00  0.00000E+00  9.000E+00
      25     1     1     2     0     0  1.059332192E+02 -9.920335754E+01  1.880777355E+02  2.684425221E+02  1.250000000E+02  0.00000E+00  9.000E+00
      25     1     1     2     0     0 -1.199619413E+02  1.421841880E+02 -3.767823780E+01  2.272704563E+02  1.250000000E+02  0.00000E+00  9.000E+00
      21     1     1     2   512   501  1.402872214E+01 -4.298083047E+01 -1.617642262E+01  4.801909497E+01  2.384185791E-07  0.00000E+00  9.000E+00
#rwgt            1           1   4.0338412669837245E-002          26        7455           0
</event>
<event>
      5   9999  3.70600E-02  2.16857E+02 -1.00000E+00  1.10382E-01
      21    -1     0     0   502   501  0.000000000E+00  0.000000000E+00  5.461504876E+02  5.461504876E+02  0.000000000E+00  0.00000E+00  9.000E+00
      21    -1     0     0   501   511  0.000000000E+00  0.000000000E+00 -7.243178782E+02  7.243178782E+02  0.000000000E+00  0.00000E+00  9.000E+00
      25     1     1     2     0     0 -4.865635530E+02 -7.091381233E+01 -9.989510463E+01  5.170849948E+02  1.250000000E+02  0.00000E+00  9.000E+00
      25     1     1     2     0     0  2.904536057E+02 -2.164971779E+01  2.191222047E+02  3.853200591E+02  1.250000000E+02  0.00000E+00  9.000E+00
      21     1     1     2   502   511  1.961099473E+02  9.256353013E+01 -2.973944907E+02  3.680633120E+02  3.814697266E-06  0.00000E+00  9.000E+00
#rwgt            1           1  0.14959414577128410               26        8076           0
</event>
<event>
      5   9999  3.70600E-02  1.50136E+01 -1.00000E+00  1.77343E-01
      21    -1     0     0   502   512  0.000000000E+00  0.000000000E+00  1.030894360E+02  1.030894360E+02  0.000000000E+00  0.00000E+00  9.000E+00
      21    -1     0     0   501   502  0.000000000E+00  0.000000000E+00 -5.133466094E+02  5.133466094E+02  0.000000000E+00  0.00000E+00  9.000E+00
      25     1     1     2     0     0  8.526679749E+01  1.035093570E+02 -3.407245854E+02  3.869145343E+02  1.250000000E+02  0.00000E+00  9.000E+00
      25     1     1     2     0     0 -1.001774872E+02 -1.052642726E+02 -8.344268422E+01  2.090544847E+02  1.250000000E+02  0.00000E+00  9.000E+00
      21     1     1     2   501   512  1.491068968E+01  1.754915522E+00  1.391009625E+01  2.046702648E+01  5.057621821E-07  0.00000E+00  9.000E+00
#rwgt            1           1   3.2252809494224904E-002          26        8530           0
</event>
<event>
      5   9999  3.70600E-02  2.45041E+01 -1.00000E+00  1.59402E-01
      21    -1     0     0   511   501  0.000000000E+00  0.000000000E+00  1.059047407E+03  1.059047407E+03  0.000000000E+00  0.00000E+00  9.000E+00
      21    -1     0     0   501   502  0.000000000E+00  0.000000000E+00 -2.664153146E+02  2.664153146E+02  0.000000000E+00  0.00000E+00  9.000E+00
      25     1     1     2     0     0  1.137795670E+02  1.286435383E+02 -1.575074711E+02  2.644400750E+02  1.250000000E+02  0.00000E+00  9.000E+00
      25     1     1     2     0     0 -1.300535772E+02 -1.469631731E+02  1.897459253E+02  3.002342808E+02  1.250000000E+02  0.00000E+00  9.000E+00
      21     1     1     2   511   502  1.627401023E+01  1.831963478E+01  7.603936380E+02  7.607883656E+02  1.525878906E-05  0.00000E+00  9.000E+00
#rwgt            1           1   5.0102786348784775E-002          26        8834           0
</event>
<event>
      5   9999  3.70600E-02  5.30576E+01 -1.00000E+00  1.37618E-01
       2    -1     0     0   502     0  0.000000000E+00  0.000000000E+00  6.173926102E+02  6.173926102E+02  0.000000000E+00  0.00000E+00  9.000E+00
      21    -1     0     0   501   502  0.000000000E+00  0.000000000E+00 -6.500990855E+02  6.500990855E+02  0.000000000E+00  0.00000E+00  9.000E+00
      25     1     1     2     0     0 -9.343592001E+01 -2.203924701E+02 -1.251498111E+02  2.976417095E+02  1.250000000E+02  0.00000E+00  9.000E+00
      25     1     1     2     0     0  1.176476483E+02  2.676036571E+02 -3.794204024E+02  4.950126546E+02  1.250000000E+02  0.00000E+00  9.000E+00
       2     1     1     2   501     0 -2.421172831E+01 -4.721118698E+01  4.718637382E+02  4.748373315E+02  0.000000000E+00  0.00000E+00  9.000E+00
#rwgt            1           1   4.4617845644568291E-002          26        9234           0
</event>
<event>
      5   9999  3.70600E-02  6.95648E+01 -1.00000E+00  1.31356E-01
      21    -1     0     0   502   501  0.000000000E+00  0.000000000E+00  4.608340284E+02  4.608340284E+02  0.000000000E+00  0.00000E+00  9.000E+00
      21    -1     0     0   501   511  0.000000000E+00  0.000000000E+00 -1.960724867E+02  1.960724867E+02  0.000000000E+00  0.00000E+00  9.000E+00
      25     1     1     2     0     0  1.793612474E+02  8.023520837E+01  2.985570364E+02  3.786415847E+02  1.250000000E+02  0.00000E+00  9.000E+00
      25     1     1     2     0     0 -1.181259910E+02 -1.132428744E+02 -1.648043538E+01  2.065775959E+02  1.250000000E+02  0.00000E+00  9.000E+00
      21     1     1     2   502   511 -6.123525636E+01  3.300766607E+01 -1.731505928E+01  7.168733444E+01  9.233911863E-07  0.00000E+00  9.000E+00
#rwgt            1           1   2.6567845317872072E-002          26        9652           0
</event>
<event>
      5   9999  3.70600E-02  3.20172E+01 -1.00000E+00  1.51100E-01
      21    -1     0     0   502   512  0.000000000E+00  0.000000000E+00  1.021783478E+02  1.021783478E+02  0.000000000E+00  0.00000E+00  9.000E+00
      21    -1     0     0   501   502  0.000000000E+00  0.000000000E+00 -4.665137023E+02  4.665137023E+02  0.000000000E+00  0.00000E+00  9.000E+00
      25     1     1     2     0     0  7.358354053E+01  4.671116131E+01 -3.565749293E+02  3.877720338E+02  1.250000000E+02  0.00000E+00  9.000E+00
      25     1     1     2     0     0 -4.599633990E+01 -6.296068086E+01  2.351525235E+00  1.473439523E+02  1.250000000E+02  0.00000E+00  9.000E+00
      21     1     1     2   501   512 -2.758720062E+01  1.624951955E+01 -1.011195045E+01  3.357606388E+01  3.371747881E-07  0.00000E+00  9.000E+00
#rwgt            1           1   4.5005442892576443E-002          26        9800           0
</event>
<event>
      5   9999  3.70600E-02  3.75310E+02 -1.00000E+00  1.02524E-01
      21    -1     0     0   502   501  0.000000000E+00  0.000000000E+00  9.100126592E+02  9.100126592E+02  0.000000000E+00  0.00000E+00  9.000E+00
      21    -1     0     0   501   511  0.000000000E+00  0.000000000E+00 -4.054804044E+02  4.054804044E+02  0.000000000E+00  0.00000E+00  9.000E+00
      25     1     1     2     0     0 -6.045106622E+01  2.550733377E+02  7.253191814E+01  2.993369643E+02  1.250000000E+02  0.00000E+00  9.000E+00
      25     1     1     2     0     0  3.007933652E+02  3.318605089E+01  5.347586457E+02  6.270325124E+02  1.250000000E+02  0.00000E+00  9.000E+00
      21     1     1     2   502   511 -2.403422989E+02 -2.882593886E+02 -1.027583090E+02  3.891235869E+02  5.046370146E-06  0.00000E+00  9.000E+00
#rwgt            2          11   1.4658184607783944E-003          26       10301           0
</event>
<event>
      5   9999  3.70600E-02  2.23678E+01 -1.00000E+00  1.62454E-01
      21    -1     0     0   512   501  0.000000000E+00  0.000000000E+00  1.501949493E+03  1.501949493E+03  0.000000000E+00  0.00000E+00  9.000E+00
      21    -1     0     0   501   502  0.000000000E+00  0.000000000E+00 -6.310350787E+01  6.310350787E+01  0.000000000E+00  0.00000E+00  9.000E+00
      25     1     1     2     0     0 -1.200341504E+02  6.738075257E+01  3.471520889E+02  3.938120566E+02  1.250000000E+02  0.00000E+00  9.000E+00
      25     1     1     2     0     0  1.034946477E+02 -8.243938209E+01  1.693310263E+02  2.486068992E+02  1.250000000E+02  0.00000E+00  9.000E+00
      21     1     1     2   512   502  1.653950265E+01  1.505862953E+01  9.223628696E+02  9.226340449E+02  1.525878906E-05  0.00000E+00  9.000E+00
#rwgt            1           1   3.5672441818348700E-002          26       10546           0
</event>
<event>
      5   9999  3.70600E-02  2.64982E+01 -1.00000E+00  1.56878E-01
      21    -1     0     0   511   501  0.000000000E+00  0.000000000E+00  1.008467305E+03  1.008467305E+03  0.000000000E+00  0.00000E+00  9.000E+00
      21    -1     0     0   501   502  0.000000000E+00  0.000000000E+00 -1.643485416E+02  1.643485416E+02  0.000000000E+00  0.00000E+00  9.000E+00
      25     1     1     2     0     0 -6.329577497E+01  6.852773133E+01  6.216379669E+01  1.679039687E+02  1.250000000E+02  0.00000E+00  9.000E+00
      25     1     1     2     0     0  5.397855741E+01 -9.333380867E+01 -5.004147432E+01  1.724935757E+02  1.250000000E+02  0.00000E+00  9.000E+00
      21     1     1     2   511   502  9.317217558E+00  2.480607735E+01  8.319964407E+02  8.324183019E+02  1.078959322E-05  0.00000E+00  9.000E+00
#rwgt            1           1   4.2039334764403476E-002          26       10827           0
</event>
<event>
      5   9999  3.70600E-02  9.36243E+01 -1.00000E+00  1.25127E-01
      21    -1     0     0   502   501  0.000000000E+00  0.000000000E+00  3.747135914E+02  3.747135914E+02  0.000000000E+00  0.00000E+00  9.000E+00
      -1    -1     0     0     0   502  0.000000000E+00  0.000000000E+00 -7.600843513E+02  7.600843513E+02  0.000000000E+00  0.00000E+00  9.000E+00
      25     1     1     2     0     0  1.147657355E+01  1.654478985E+02 -7.552852678E+01  2.209847895E+02  1.250000000E+02  0.00000E+00  9.000E+00
      25     1     1     2     0     0  5.503690884E+01 -9.955803545E+01  2.743139577E+02  3.222018174E+02  1.250000000E+02  0.00000E+00  9.000E+00
      -1     1     1     2     0   501 -6.651348239E+01 -6.588986303E+01 -5.841561908E+02  5.916113358E+02  1.321449896E-05  0.00000E+00  9.000E+00
#rwgt            1           1   6.8834040322661133E-002          26       11020           0
</event>
<event>
      5   9999  3.70600E-02  1.10723E+02 -1.00000E+00  1.21869E-01
      21    -1     0     0   502   501  0.000000000E+00  0.000000000E+00  7.402851069E+01  7.402851069E+01  0.000000000E+00  0.00000E+00  9.000E+00
      21    -1     0     0   501   511  0.000000000E+00  0.000000000E+00 -8.138336760E+02  8.138336760E+02  0.000000000E+00  0.00000E+00  9.000E+00
      25     1     1     2     0     0 -1.284436594E+02  3.205900053E+00 -4.100087748E+02  4.474821190E+02  1.250000000E+02  0.00000E+00  9.000E+00
      25     1     1     2     0     0  5.328025319E+01  7.809605072E+01 -1.017009404E+02  1.868310997E+02  1.250000000E+02  0.00000E+00  9.000E+00
      21     1     1     2   502   511  7.516340620E+01 -8.130195077E+01 -2.280954501E+02  2.535489680E+02  2.697398305E-06  0.00000E+00  9.000E+00
#rwgt            1           1   5.1201887354895309E-002          26       11091           0
</event>
<event>
      5   9999  3.70600E-02  7.35676E+01 -1.00000E+00  1.30135E-01
       2    -1     0     0   502     0  0.000000000E+00  0.000000000E+00  9.455197780E+02  9.455197780E+02  0.000000000E+00  0.00000E+00  9.000E+00
      21    -1     0     0   501   502  0.000000000E+00  0.000000000E+00 -2.992834961E+02  2.992834961E+02  0.000000000E+00  0.00000E+00  9.000E+00
      25     1     1     2     0     0 -1.077386617E+02  7.455012405E+01 -9.087549120E+01  2.026047757E+02  1.250000000E+02  0.00000E+00  9.000E+00
      25     1     1     2     0     0  1.807057938E+02 -8.393030704E+01 -5.915946451E+01  2.425360233E+02  1.250000000E+02  0.00000E+00  9.000E+00
       2     1     1     2   501     0 -7.296713214E+01  9.380182996E+00  7.962712377E+02  7.996624751E+02  1.078959322E-05  0.00000E+00  9.000E+00
#rwgt            1           1   4.2488041877021744E-002          26       11320           0
</event>
<event>
      5   9999  3.70600E-02  1.15402E+02 -1.00000E+00  1.21091E-01
      21    -1     0     0   502   501  0.000000000E+00  0.000000000E+00  4.942457573E+02  4.942457573E+02  0.000000000E+00  0.00000E+00  9.000E+00
      21    -1     0     0   501   511  0.000000000E+00  0.000000000E+00 -4.355135647E+02  4.355135647E+02  0.000000000E+00  0.00000E+00  9.000E+00
      25     1     1     2     0     0  8.455701693E+01 -2.237472827E+02  4.899592704E-01  2.698851157E+02  1.250000000E+02  0.00000E+00  9.000E+00
      25     1     1     2     0     0 -8.966515035E+01  1.084583575E+02  3.214368009E+02  3.724911697E+02  1.250000000E+02  0.00000E+00  9.000E+00
      21     1     1     2   502   511  5.108133419E+00  1.152889252E+02 -2.631945676E+02  2.873830366E+02  3.814697266E-06  0.00000E+00  9.000E+00
#rwgt            1           1   4.0607799128228282E-002          26       11632           0
</event>
<event>
      5   9999  3.70600E-02  8.29899E+01 -1.00000E+00  1.27581E-01
      21    -1     0     0   502   501  0.000000000E+00  0.000000000E+00  4.767506783E+02  4.767506783E+02  0.000000000E+00  0.00000E+00  9.000E+00
       2    -1     0     0   501     0  0.000000000E+00  0.000000000E+00 -4.954902564E+02  4.954902564E+02  0.000000000E+00  0.00000E+00  9.000E+00
      25     1     1     2     0     0  3.829296946E+01  1.059986531E+02  5.160266888E+01  1.760394882E+02  1.250000000E+02  0.00000E+00  9.000E+00
      25     1     1     2     0     0 -5.996432715E+01 -2.588826901E+01  3.449658690E+02  3.726826717E+02  1.250000000E+02  0.00000E+00  9.000E+00
       2     1     1     2   502     0  2.167135769E+01 -8.011038414E+01 -4.153081160E+02  4.235187748E+02  0.000000000E+00  0.00000E+00  9.000E+00
#rwgt            1           1   4.1806838649226637E-002          26       11900           0
</event>
<event>
      5   9999  3.70600E-02  1.90688E+01 -1.00000E+00  1.68093E-01
      21    -1     0     0   502   511  0.000000000E+00  0.000000000E+00  3.206112362E+02  3.206112362E+02  0.000000000E+00  0.00000E+00  9.000E+00
      21    -1     0     0   501   502  0.000000000E+00  0.000000000E+00 -3.055406925E+02  3.055406925E+02  0.000000000E+00  0.00000E+00  9.000E+00
      25     1     1     2     0     0  1.768402504E+00  2.893347289E+01  5.694948383E+01  1.403870251E+02  1.250000000E+02  0.00000E+00  9.000E+00
      25     1     1     2     0     0  1.413554591E+01 -1.841292989E+01 -2.480393250E+02  2.787245171E+02  1.250000000E+02  0.00000E+00  9.000E+00
      21     1     1     2   501   511 -1.590394841E+01 -1.052054300E+01  2.061603848E+02  2.070403866E+02  2.697398305E-06  0.00000E+00  9.000E+00
#rwgt            1           1   2.4361146476717485E-002          26       12316           0
</event>
<event>
      5   9999  3.70600E-02  2.30103E+01 -1.00000E+00  1.61494E-01
      21    -1     0     0   512   501  0.000000000E+00  0.000000000E+00  3.053529863E+02  3.053529863E+02  0.000000000E+00  0.00000E+00  9.000E+00
      21    -1     0     0   501   502  0.000000000E+00  0.000000000E+00 -1.482412419E+02  1.482412419E+02  0.000000000E+00  0.00000E+00  9.000E+00
      25     1     1     2     0     0 -1.060830909E+02 -6.516045508E+01  1.508087437E+02  2.320943434E+02  1.250000000E+02  0.00000E+00  9.000E+00
      25     1     1     2     0     0  1.289039484E+02  6.221396430E+01 -1.436104222E+01  1.905729383E+02  1.250000000E+02  0.00000E+00  9.000E+00
      21     1     1     2   512   502 -2.282085755E+01  2.946490782E+00  2.066404295E+01  3.092694647E+01  4.129530925E-07  0.00000E+00  9.000E+00
#rwgt            1           1   3.4394940189214233E-002          26       12814           0
</event>
<event>
      5   9999  3.70600E-02  7.90710E+01 -1.00000E+00  1.28594E-01
      21    -1     0     0   502   501  0.000000000E+00  0.000000000E+00  6.930149885E+02  6.930149885E+02  0.000000000E+00  0.00000E+00  9.000E+00
      21    -1     0     0   511   502  0.000000000E+00  0.000000000E+00 -1.194199986E+02  1.194199986E+02  0.000000000E+00  0.00000E+00  9.000E+00
      25     1     1     2     0     0  1.248160136E+02  2.735448859E+00  2.506455563E+02  3.066508027E+02  1.250000000E+02  0.00000E+00  9.000E+00
      25     1     1     2     0     0 -1.669945416E+02 -6.961745324E+01  3.573193535E+02  4.195663084E+02  1.250000000E+02  0.00000E+00  9.000E+00
      21     1     1     2   511   501  4.217852806E+01  6.688200438E+01 -3.436991994E+01  8.621787596E+01  1.507891493E-06  0.00000E+00  9.000E+00
#rwgt            1           1   3.9427706434118977E-002          26       13371           0
</event>
<event>
      5   9999  3.70600E-02  9.54559E+01 -1.00000E+00  1.24741E-01
       4    -1     0     0   502     0  0.000000000E+00  0.000000000E+00  5.144352922E+01  5.144352922E+01  0.000000000E+00  0.00000E+00  9.000E+00
      21    -1     0     0   501   502  0.000000000E+00  0.000000000E+00 -1.117388684E+03  1.117388684E+03  0.000000000E+00  0.00000E+00  9.000E+00
      25     1     1     2     0     0 -4.381550852E+01  6.213336336E+01 -1.331776150E+02  1.978424392E+02  1.250000000E+02  0.00000E+00  9.000E+00
      25     1     1     2     0     0 -4.911225619E+01 -8.395652645E+01 -7.285065052E+02  7.455249427E+02  1.250000000E+02  0.00000E+00  9.000E+00
       4     1     1     2   501     0  9.292776472E+01  2.182316309E+01 -2.042610345E+02  2.254648312E+02  0.000000000E+00  0.00000E+00  9.000E+00
#rwgt            1           1   2.1343729341563922E-002          26       13490           0
</event>
<event>
      5   9999  3.70600E-02  9.88516E+00 -1.00000E+00  1.96334E-01
      21    -1     0     0   502   501  0.000000000E+00  0.000000000E+00  1.287868194E+02  1.287868194E+02  0.000000000E+00  0.00000E+00  9.000E+00
      21    -1     0     0   501   511  0.000000000E+00  0.000000000E+00 -4.998853289E+02  4.998853289E+02  0.000000000E+00  0.00000E+00  9.000E+00
      25     1     1     2     0     0  9.690316964E+01 -3.758112490E+01  5.091015807E+01  1.703508422E+02  1.250000000E+02  0.00000E+00  9.000E+00
      25     1     1     2     0     0 -1.047630305E+02  4.357603218E+01 -3.951175877E+02  4.296708871E+02  1.250000000E+02  0.00000E+00  9.000E+00
      21     1     1     2   502   511  7.859860886E+00 -5.994907281E+00 -2.689107996E+01  2.865041898E+01  3.371747881E-07  0.00000E+00  9.000E+00
#rwgt            1           1   4.8740375909479612E-002          26       13612           0
</event>
<event>
      5   9999  3.70600E-02  3.93372E+01 -1.00000E+00  1.45289E-01
      21    -1     0     0   502   501  0.000000000E+00  0.000000000E+00  8.162163041E+02  8.162163041E+02  0.000000000E+00  0.00000E+00  9.000E+00
      21    -1     0     0   501   512  0.000000000E+00  0.000000000E+00 -1.766688560E+02  1.766688560E+02  0.000000000E+00  0.00000E+00  9.000E+00
      25     1     1     2     0     0  3.826190553E+01  1.222942775E+02  2.033296337E+01  1.801618526E+02  1.250000000E+02  0.00000E+00  9.000E+00
      25     1     1     2     0     0  6.410555199E-02 -1.311562066E+02  6.998937940E+02  7.229649214E+02  1.250000000E+02  0.00000E+00  9.000E+00
      21     1     1     2   502   512 -3.832601108E+01  8.861929142E+00 -8.067930932E+01  8.975838605E+01  3.015782986E-06  0.00000E+00  9.000E+00
#rwgt            1           1   3.3574766888984996E-002          26       14040           0
</event>
<event>
      5   9999  3.70600E-02  6.33551E+01 -1.00000E+00  1.33451E-01
      21    -1     0     0   502   501  0.000000000E+00  0.000000000E+00  1.289213463E+02  1.289213463E+02  0.000000000E+00  0.00000E+00  9.000E+00
      21    -1     0     0   511   502  0.000000000E+00  0.000000000E+00 -1.515643170E+03  1.515643170E+03  0.000000000E+00  0.00000E+00  9.000E+00
      25     1     1     2     0     0  1.683460909E+02  4.458968630E+01 -7.751836763E+02  8.042781723E+02  1.250000000E+02  0.00000E+00  9.000E+00
      25     1     1     2     0     0 -1.712574341E+02 -1.078778597E+02 -1.283052381E+01  2.382359412E+02  1.250000000E+02  0.00000E+00  9.000E+00
      21     1     1     2   511   501  2.911343242E+00  6.328817341E+01 -5.987076233E+02  6.020504024E+02  1.078959322E-05  0.00000E+00  9.000E+00
#rwgt            1           1   4.1079298707045797E-002          26       14716           0
</event>
<event>
      5   9999  3.70600E-02  5.65374E+01 -1.00000E+00  1.36095E-01
      21    -1     0     0   502   501  0.000000000E+00  0.000000000E+00  6.208101929E+02  6.208101929E+02  0.000000000E+00  0.00000E+00  9.000E+00
      21    -1     0     0   501   512  0.000000000E+00  0.000000000E+00 -5.591047321E+02  5.591047321E+02  0.000000000E+00  0.00000E+00  9.000E+00
      25     1     1     2     0     0 -7.065822801E+01  3.570878895E+02  4.496753878E+01  3.874937749E+02  1.250000000E+02  0.00000E+00  9.000E+00
      25     1     1     2     0     0  8.826937678E+01 -3.033633504E+02  3.302655996E+02  4.738366507E+02  1.250000000E+02  0.00000E+00  9.000E+00
      21     1     1     2   502   512 -1.761114877E+01 -5.372453914E+01 -3.135276776E+02  3.185844995E+02  3.814697266E-06  0.00000E+00  9.000E+00
#rwgt            1           1  0.15369082896868866               26       15454           0
</event>
<event>
      5   9999  3.70600E-02  7.94582E+01 -1.00000E+00  1.28491E-01
      21    -1     0     0   502   501  0.000000000E+00  0.000000000E+00  1.447581806E+02  1.447581806E+02  0.000000000E+00  0.00000E+00  9.000E+00
      21    -1     0     0   501   511  0.000000000E+00  0.000000000E+00 -1.051634856E+03  1.051634856E+03  0.000000000E+00  0.00000E+00  9.000E+00
      25     1     1     2     0     0 -3.028660365E+01  4.871040699E+01  8.414993735E+01  1.612333528E+02  1.250000000E+02  0.00000E+00  9.000E+00
      25     1     1     2     0     0  5.440907669E+01  2.699764547E+01 -2.211432895E+02  2.611868583E+02  1.250000000E+02  0.00000E+00  9.000E+00
      21     1     1     2   502   511 -2.412247304E+01 -7.570805246E+01 -7.698833231E+02  7.739728251E+02  1.078959322E-05  0.00000E+00  9.000E+00
#rwgt            1           1   4.8627009224987187E-002          26       16099           0
</event>
<event>
      5   9999  3.70600E-02  5.48786E+01 -1.00000E+00  1.36805E-01
      21    -1     0     0   502   501  0.000000000E+00  0.000000000E+00  1.368246493E+02  1.368246493E+02  0.000000000E+00  0.00000E+00  9.000E+00
       3    -1     0     0   501     0  0.000000000E+00  0.000000000E+00 -1.160262265E+03  1.160262265E+03  0.000000000E+00  0.00000E+00  9.000E+00
      25     1     1     2     0     0 -6.258344728E+01 -1.306602833E+02 -3.835378743E+02  4.286199931E+02  1.250000000E+02  0.00000E+00  9.000E+00
      25     1     1     2     0     0  3.898359575E+01  8.111526857E+01  6.082082514E+01  1.656006652E+02  1.250000000E+02  0.00000E+00  9.000E+00
       3     1     1     2   502     0  2.359985153E+01  4.954501472E+01 -7.007205668E+02  7.028662562E+02  7.629394531E-06  0.00000E+00  9.000E+00
#rwgt            1           1   3.7365836284138788E-002          26       16211           0
</event>
<event>
      5   9999  3.70600E-02  1.49964E+02 -1.00000E+00  1.16396E-01
      21    -1     0     0   502   501  0.000000000E+00  0.000000000E+00  2.222199955E+02  2.222199955E+02  0.000000000E+00  0.00000E+00  9.000E+00
      21    -1     0     0   501   511  0.000000000E+00  0.000000000E+00 -4.488475862E+02  4.488475862E+02  0.000000000E+00  0.00000E+00  9.000E+00
      25     1     1     2     0     0 -5.365094015E+01  1.238210584E+02  3.842748543E+01  1.879142079E+02  1.250000000E+02  0.00000E+00  9.000E+00
      25     1     1     2     0     0 -7.604615437E+01 -1.991066288E+02 -1.206622487E+02  2.749742633E+02  1.250000000E+02  0.00000E+00  9.000E+00
      21     1     1     2   502   511  1.296970945E+02  7.528557043E+01 -1.443928275E+02  2.081791106E+02  2.697398305E-06  0.00000E+00  9.000E+00
#rwgt            1           1   4.2406361545484307E-002          26       16397           0
</event>
<event>
      5   9999  3.70600E-02  4.73300E+01 -1.00000E+00  1.40447E-01
      21    -1     0     0   502   512  0.000000000E+00  0.000000000E+00  9.364667252E+01  9.364667252E+01  0.000000000E+00  0.00000E+00  9.000E+00
      21    -1     0     0   501   502  0.000000000E+00  0.000000000E+00 -1.201956841E+03  1.201956841E+03  0.000000000E+00  0.00000E+00  9.000E+00
      25     1     1     2     0     0 -1.965402714E+02  1.185784959E+02 -2.176749808E+02  3.401416399E+02  1.250000000E+02  0.00000E+00  9.000E+00
      25     1     1     2     0     0  1.582440535E+02 -1.463909445E+02 -8.678790050E+02  9.029454338E+02  1.250000000E+02  0.00000E+00  9.000E+00
      21     1     1     2   501   512  3.829621787E+01  2.781244857E+01 -2.275618279E+01  5.251643985E+01  1.430511475E-06  0.00000E+00  9.000E+00
#rwgt            1           1   4.4839287182933167E-002          26       16611           0
</event>
<event>
      5   9999  3.70600E-02  2.22393E+01 -1.00000E+00  1.62651E-01
      21    -1     0     0   502   501  0.000000000E+00  0.000000000E+00  3.894695187E+02  3.894695187E+02  0.000000000E+00  0.00000E+00  9.000E+00
      21    -1     0     0   501   511  0.000000000E+00  0.000000000E+00 -3.574548729E+02  3.574548729E+02  0.000000000E+00  0.00000E+00  9.000E+00
      25     1     1     2     0     0 -1.492183257E+02  1.728891590E+01  2.543782965E+02  3.207777004E+02  1.250000000E+02  0.00000E+00  9.000E+00
      25     1     1     2     0     0  1.271992724E+02 -2.041125521E+01  2.193479271E+01  1.808380750E+02  1.250000000E+02  0.00000E+00  9.000E+00
      21     1     1     2   502   511  2.201905330E+01  3.122339316E+00 -2.442984434E+02  2.453086162E+02  3.814697266E-06  0.00000E+00  9.000E+00
#rwgt            1           1   3.5111680361059092E-002          26       17220           0
</event>
<event>
      5   9999  3.70600E-02  2.13763E+01 -1.00000E+00  1.64016E-01
      21    -1     0     0   502   501  0.000000000E+00  0.000000000E+00  2.064862109E+02  2.064862109E+02  0.000000000E+00  0.00000E+00  9.000E+00
      21    -1     0     0   512   502  0.000000000E+00  0.000000000E+00 -2.326812133E+02  2.326812133E+02  0.000000000E+00  0.00000E+00  9.000E+00
      25     1     1     2     0     0  9.375699531E+01 -9.839768932E+00 -1.305209925E+02  2.038330805E+02  1.250000000E+02  0.00000E+00  9.000E+00
      25     1     1     2     0     0 -1.107218998E+02 -3.165479621E+00  1.226224704E+02  2.071970791E+02  1.250000000E+02  0.00000E+00  9.000E+00
      21     1     1     2   512   501  1.696490447E+01  1.300524855E+01 -1.829648021E+01  2.813726465E+01  2.384185791E-07  0.00000E+00  9.000E+00
#rwgt            1           1   3.0478834333370564E-002          26       19034           0
</event>
<event>
      5   9999  3.70600E-02  3.06984E+01 -1.00000E+00  1.52346E-01
      21    -1     0     0   511   501  0.000000000E+00  0.000000000E+00  4.582117506E+01  4.582117506E+01  0.000000000E+00  0.00000E+00  9.000E+00
      21    -1     0     0   501   502  0.000000000E+00  0.000000000E+00 -8.865433473E+02  8.865433473E+02  0.000000000E+00  0.00000E+00  9.000E+00
      25     1     1     2     0     0 -4.896985512E+01  9.843663123E+01 -1.942262807E+02  2.558059132E+02  1.250000000E+02  0.00000E+00  9.000E+00
      25     1     1     2     0     0  2.128157638E+01 -8.517949116E+01 -6.101632428E+02  6.289933498E+02  1.250000000E+02  0.00000E+00  9.000E+00
      21     1     1     2   511   502  2.768827874E+01 -1.325714008E+01 -3.633264877E+01  4.756525947E+01  6.743495762E-07  0.00000E+00  9.000E+00
#rwgt            1           1   3.7942568386303437E-002          26       19905           0
</event>
<event>
      5   9999  3.70600E-02  3.44931E+01 -1.00000E+00  1.48943E-01
      21    -1     0     0   502   501  0.000000000E+00  0.000000000E+00  2.211113507E+03  2.211113507E+03  0.000000000E+00  0.00000E+00  9.000E+00
      21    -1     0     0   512   502  0.000000000E+00  0.000000000E+00 -2.281244471E+01  2.281244471E+01  0.000000000E+00  0.00000E+00  9.000E+00
      25     1     1     2     0     0 -4.820990875E+01  4.139602066E+01  1.751991586E+03  1.757594192E+03  1.250000000E+02  0.00000E+00  9.000E+00
      25     1     1     2     0     0  5.787176256E+01 -7.450828550E+01  3.600474839E+02  3.926319093E+02  1.250000000E+02  0.00000E+00  9.000E+00
      21     1     1     2   512   501 -9.661853815E+00  3.311226484E+01  7.626199214E+01  8.369985035E+01  1.651812370E-06  0.00000E+00  9.000E+00
#rwgt            1           1  0.10073634966617868               26       21116           0
</event>
<event>
      5   9999  3.70600E-02  1.80454E+01 -1.00000E+00  1.70137E-01
      21    -1     0     0   502   501  0.000000000E+00  0.000000000E+00  6.130910463E+01  6.130910463E+01  0.000000000E+00  0.00000E+00  9.000E+00
      21    -1     0     0   511   502  0.000000000E+00  0.000000000E+00 -1.041424992E+03  1.041424992E+03  0.000000000E+00  0.00000E+00  9.000E+00
      25     1     1     2     0     0 -1.032192574E+02 -2.710745471E+01 -3.711130651E+02  4.058804458E+02  1.250000000E+02  0.00000E+00  9.000E+00
      25     1     1     2     0     0  1.210197910E+02  3.006998934E+01 -1.343727632E+02  2.218806741E+02  1.250000000E+02  0.00000E+00  9.000E+00
      21     1     1     2   511   501 -1.780053363E+01 -2.962534630E+00 -4.746300595E+02  4.749729771E+02  7.629394531E-06  0.00000E+00  9.000E+00
#rwgt            1           1   3.3271078281338004E-002          26       21502           0
</event>
<event>
      5   9999  3.70600E-02  5.61403E+01 -1.00000E+00  1.36263E-01
      21    -1     0     0   502   501  0.000000000E+00  0.000000000E+00  5.319476236E+02  5.319476236E+02  0.000000000E+00  0.00000E+00  9.000E+00
      -2    -1     0     0     0   502  0.000000000E+00  0.000000000E+00 -1.223425354E+03  1.223425354E+03  0.000000000E+00  0.00000E+00  9.000E+00
      25     1     1     2     0     0 -2.475347645E+02  1.670297006E+02  4.859608847E+01  3.273514324E+02  1.250000000E+02  0.00000E+00  9.000E+00
      25     1     1     2     0     0  2.350246276E+02 -2.217584272E+02  2.557384318E+02  4.306280542E+02  1.250000000E+02  0.00000E+00  9.000E+00
      -2     1     1     2     0   501  1.251013688E+01  5.472872657E+01 -9.958122508E+02  9.973934910E+02  1.868812365E-05  0.00000E+00  9.000E+00
#rwgt            1           1   4.4212668637033638E-002          26       21788           0
</event>
<event>
      5   9999  3.70600E-02  8.11282E+01 -1.00000E+00  1.28054E-01
      21    -1     0     0   502   501  0.000000000E+00  0.000000000E+00  1.202818380E+02  1.202818380E+02  0.000000000E+00  0.00000E+00  9.000E+00
       2    -1     0     0   501     0  0.000000000E+00  0.000000000E+00 -7.536916799E+02  7.536916799E+02  0.000000000E+00  0.00000E+00  9.000E+00
      25     1     1     2     0     0 -6.551432872E+01 -6.241613200E+01  3.092344248E+01  1.573822102E+02  1.250000000E+02  0.00000E+00  9.000E+00
      25     1     1     2     0     0  1.368138725E+02  2.371000415E+01 -4.391707440E+02  4.772589888E+02  1.250000000E+02  0.00000E+00  9.000E+00
       2     1     1     2   502     0 -7.129954383E+01  3.870612785E+01 -2.251625403E+02  2.393323189E+02  2.697398305E-06  0.00000E+00  9.000E+00
#rwgt            2          13   1.5757462822965090E-004          26       22244           0
</event>
<event>
      5   9999  3.70600E-02  1.96200E+01 -1.00000E+00  1.67056E-01
      21    -1     0     0   502   501  0.000000000E+00  0.000000000E+00  1.361125123E+02  1.361125123E+02  0.000000000E+00  0.00000E+00  9.000E+00
      21    -1     0     0   501   511  0.000000000E+00  0.000000000E+00 -6.668722712E+02  6.668722712E+02  0.000000000E+00  0.00000E+00  9.000E+00
      25     1     1     2     0     0  1.218697073E+02 -2.634594907E+00 -2.954712565E+02  3.432017338E+02  1.250000000E+02  0.00000E+00  9.000E+00
      25     1     1     2     0     0 -1.085787933E+02 -1.179785612E+01  5.035827682E+01  1.734632520E+02  1.250000000E+02  0.00000E+00  9.000E+00
      21     1     1     2   502   511 -1.329091407E+01  1.443245102E+01 -2.856467792E+02  2.863197977E+02  3.814697266E-06  0.00000E+00  9.000E+00
#rwgt            1           1   3.5721687624975969E-002          26       22578           0
</event>
<event>
      5   9999  3.70600E-02  2.59643E+01 -1.00000E+00  1.57527E-01
      21    -1     0     0   502   512  0.000000000E+00  0.000000000E+00  1.598144878E+02  1.598144878E+02  0.000000000E+00  0.00000E+00  9.000E+00
      21    -1     0     0   501   502  0.000000000E+00  0.000000000E+00 -9.785824866E+02  9.785824866E+02  0.000000000E+00  0.00000E+00  9.000E+00
      25     1     1     2     0     0 -8.414666040E+01 -1.461810873E+01 -1.154891372E+02  1.904129470E+02  1.250000000E+02  0.00000E+00  9.000E+00
      25     1     1     2     0     0  6.534099643E+01 -3.284184003E+00 -8.181446051E+02  8.302203482E+02  1.250000000E+02  0.00000E+00  9.000E+00
      21     1     1     2   501   512  1.880566397E+01  1.790229274E+01  1.148657436E+02  1.177636792E+02  3.568322551E-06  0.00000E+00  9.000E+00
#rwgt            1           1   3.6912027257613070E-002          26       22941           0
</event>
<event>
      5   9999  3.70600E-02  1.25794E+01 -1.00000E+00  1.84896E-01
      21    -1     0     0   511   501  0.000000000E+00  0.000000000E+00  5.493097671E+01  5.493097671E+01  0.000000000E+00  0.00000E+00  9.000E+00
      21    -1     0     0   501   502  0.000000000E+00  0.000000000E+00 -8.317375059E+02  8.317375059E+02  0.000000000E+00  0.00000E+00  9.000E+00
      25     1     1     2     0     0  1.357109076E+02 -5.591554181E+01 -5.542583776E+02  5.868316176E+02  1.250000000E+02  0.00000E+00  9.000E+00
      25     1     1     2     0     0 -1.253338475E+02  6.302591492E+01 -2.032100996E+02  2.767673822E+02  1.250000000E+02  0.00000E+00  9.000E+00
      21     1     1     2   511   502 -1.037706007E+01 -7.110373110E+00 -1.933805198E+01  2.306948278E+01  3.371747881E-07  0.00000E+00  9.000E+00
#rwgt            1           1   3.6695706566237912E-002          26       23441           0
</event>
<event>
      5   9999  3.70600E-02  8.51244E+01 -1.00000E+00  1.27056E-01
      21    -1     0     0   502   501  0.000000000E+00  0.000000000E+00  3.183530725E+02  3.183530725E+02  0.000000000E+00  0.00000E+00  9.000E+00
      21    -1     0     0   512   502  0.000000000E+00  0.000000000E+00 -7.087655748E+02  7.087655748E+02  0.000000000E+00  0.00000E+00  9.000E+00
      25     1     1     2     0     0  1.129369215E+02 -9.967614970E+01  2.642200883E+02  3.288272162E+02  1.250000000E+02  0.00000E+00  9.000E+00
      25     1     1     2     0     0 -4.538807838E+01  4.787539072E+01 -2.745807561E+02  3.088231247E+02  1.250000000E+02  0.00000E+00  9.000E+00
      21     1     1     2   512   501 -6.754884315E+01  5.180075898E+01 -3.800518345E+02  3.894683065E+02  7.629394531E-06  0.00000E+00  9.000E+00
#rwgt            1           1   4.7449211135909643E-002          26       24100           0
</event>
<event>
      5   9999  3.70600E-02  5.16711E+01 -1.00000E+00  1.38264E-01
      21    -1     0     0   502   501  0.000000000E+00  0.000000000E+00  1.654049892E+02  1.654049892E+02  0.000000000E+00  0.00000E+00  9.000E+00
      21    -1     0     0   501   511  0.000000000E+00  0.000000000E+00 -3.812731128E+02  3.812731128E+02  0.000000000E+00  0.00000E+00  9.000E+00
      25     1     1     2     0     0  1.527395566E+02  2.978432120E+01  1.641669471E+01  2.002772723E+02  1.250000000E+02  0.00000E+00  9.000E+00
      25     1     1     2     0     0 -1.058359619E+02 -5.146276757E+01 -8.754474733E+01  1.927141668E+02  1.250000000E+02  0.00000E+00  9.000E+00
      21     1     1     2   502   511 -4.690359462E+01  2.167844637E+01 -1.447400710E+02  1.536866630E+02  2.697398305E-06  0.00000E+00  9.000E+00
#rwgt            2          11   1.1162336689944350E-003          26       24287           0
</event>
<event>
      5   9999  3.70600E-02  2.76014E+01 -1.00000E+00  1.55594E-01
      21    -1     0     0   502   501  0.000000000E+00  0.000000000E+00  1.928700489E+03  1.928700489E+03  0.000000000E+00  0.00000E+00  9.000E+00
       1    -1     0     0   501     0  0.000000000E+00  0.000000000E+00 -2.556995264E+02  2.556995264E+02  0.000000000E+00  0.00000E+00  9.000E+00
      25     1     1     2     0     0 -4.706326709E+02  2.395983859E+02  1.016220440E+03  1.152055328E+03  1.250000000E+02  0.00000E+00  9.000E+00
      25     1     1     2     0     0  4.494620855E+02 -2.218883784E+02  7.636466197E+02  9.219716799E+02  1.250000000E+02  0.00000E+00  9.000E+00
       1     1     1     2   502     0  2.117058544E+01 -1.771000742E+01 -1.068660968E+02  1.103730071E+02  4.264961200E-06  0.00000E+00  9.000E+00
#rwgt            1           1  0.14257792723352311               26       24352           0
</event>
<event>
      5   9999  3.70600E-02  3.94325E+01 -1.00000E+00  1.45224E-01
      21    -1     0     0   511   501  0.000000000E+00  0.000000000E+00  3.759530577E+02  3.759530577E+02  0.000000000E+00  0.00000E+00  9.000E+00
      21    -1     0     0   501   502  0.000000000E+00  0.000000000E+00 -4.118027462E+02  4.118027462E+02  0.000000000E+00  0.00000E+00  9.000E+00
      25     1     1     2     0     0  2.014434976E+02 -2.322679601E+02 -1.938252841E+02  3.843450647E+02  1.250000000E+02  0.00000E+00  9.000E+00
      25     1     1     2     0     0 -1.698062280E+02  2.558052702E+02  1.364813544E+02  3.585005599E+02  1.250000000E+02  0.00000E+00  9.000E+00
      21     1     1     2   511   502 -3.163726966E+01 -2.353731014E+01  2.149424124E+01  4.491017932E+01  2.384185791E-07  0.00000E+00  9.000E+00
#rwgt            1           1   3.2622448634504739E-002          26       25304           0
</event>
<event>
      5   9999  3.70600E-02  2.61736E+01 -1.00000E+00  1.57270E-01
      21    -1     0     0   512   501  0.000000000E+00  0.000000000E+00  1.154739901E+02  1.154739901E+02  0.000000000E+00  0.00000E+00  9.000E+00
      21    -1     0     0   501   502  0.000000000E+00  0.000000000E+00 -2.403355819E+02  2.403355819E+02  0.000000000E+00  0.00000E+00  9.000E+00
      25     1     1     2     0     0  2.220062446E+01 -6.455630634E+01 -8.067805980E+01  1.636897484E+02  1.250000000E+02  0.00000E+00  9.000E+00
      25     1     1     2     0     0 -4.378807507E+01  7.935629780E+01 -5.485223085E+01  1.638553775E+02  1.250000000E+02  0.00000E+00  9.000E+00
      21     1     1     2   512   502  2.158745061E+01 -1.479999146E+01  1.066869895E+01  2.826444601E+01  3.769728732E-07  0.00000E+00  9.000E+00
#rwgt            1           1   8.8395204302813571E-002          26       25667           0
</event>
<event>
      5   9999  3.70600E-02  7.78984E+00 -1.00000E+00  2.09189E-01
      21    -1     0     0   502   501  0.000000000E+00  0.000000000E+00  5.160471640E+02  5.160471640E+02  0.000000000E+00  0.00000E+00  9.000E+00
      21    -1     0     0   501   511  0.000000000E+00  0.000000000E+00 -2.630448397E+02  2.630448397E+02  0.000000000E+00  0.00000E+00  9.000E+00
      25     1     1     2     0     0  6.292602817E+01  5.330049386E+01  4.102539678E+02  4.367309764E+02  1.250000000E+02  0.00000E+00  9.000E+00
      25     1     1     2     0     0 -6.516170402E+01 -4.583836127E+01  3.307464258E+01  1.518753931E+02  1.250000000E+02  0.00000E+00  9.000E+00
      21     1     1     2   502   511  2.235675843E+00 -7.462132587E+00 -1.903262861E+02  1.904856343E+02  2.697398305E-06  0.00000E+00  9.000E+00
#rwgt            1           1   4.6254858565096146E-002          26       25979           0
</event>
<event>
      5   9999 -3.70600E-02  4.04934E+01 -1.00000E+00  1.44508E-01
      21    -1     0     0   502   501  0.000000000E+00  0.000000000E+00  4.896427507E+02  4.896427507E+02  0.000000000E+00  0.00000E+00  9.000E+00
      21    -1     0     0   512   502  0.000000000E+00  0.000000000E+00 -2.757115707E+02  2.757115707E+02  0.000000000E+00  0.00000E+00  9.000E+00
      25     1     1     2     0     0 -2.713484799E+02  2.046404199E+02  1.437812410E+02  3.896225664E+02  1.250000000E+02  0.00000E+00  9.000E+00
      25     1     1     2     0     0  2.328952093E+02 -1.919492952E+02  7.435683927E+01  3.350203725E+02  1.250000000E+02  0.00000E+00  9.000E+00
      21     1     1     2   512   501  3.845327060E+01 -1.269112467E+01 -4.206900271E+00  4.071138263E+01  6.165552397E-07  0.00000E+00  9.000E+00
#rwgt            1           1 -0.21990800635109545               26       26480           0
</event>
<event>
      5   9999  3.70600E-02  7.68722E+01 -1.00000E+00  1.29192E-01
      21    -1     0     0   502   501  0.000000000E+00  0.000000000E+00  2.269287573E+02  2.269287573E+02  0.000000000E+00  0.00000E+00  9.000E+00
      21    -1     0     0   511   502  0.000000000E+00  0.000000000E+00 -7.143261755E+02  7.143261755E+02  0.000000000E+00  0.00000E+00  9.000E+00
      25     1     1     2     0     0 -5.237688532E+00  6.182150397E+01 -2.203966235E+02  2.608620390E+02  1.250000000E+02  0.00000E+00  9.000E+00
      25     1     1     2     0     0 -1.861138047E+01 -1.349006506E+02  1.612496103E+02  2.452977901E+02  1.250000000E+02  0.00000E+00  9.000E+00
      21     1     1     2   511   501  2.384906900E+01  7.307914663E+01 -4.282504051E+02  4.350951036E+02  0.000000000E+00  0.00000E+00  9.000E+00
#rwgt            1           1   3.7369476344835506E-002          26       26986           0
</event>
<event>
      5   9999  3.70600E-02  6.08691E+01 -1.00000E+00  1.34368E-01
      21    -1     0     0   512   501  0.000000000E+00  0.000000000E+00  4.427362715E+02  4.427362715E+02  0.000000000E+00  0.00000E+00  9.000E+00
      21    -1     0     0   501   502  0.000000000E+00  0.000000000E+00 -2.273930100E+02  2.273930100E+02  0.000000000E+00  0.00000E+00  9.000E+00
      25     1     1     2     0     0  1.478511392E+02  8.505852605E+01  1.185378664E+02  2.424275933E+02  1.250000000E+02  0.00000E+00  9.000E+00
      25     1     1     2     0     0 -1.540944483E+02 -2.451050328E+01 -9.868336211E+01  2.229557573E+02  1.250000000E+02  0.00000E+00  9.000E+00
      21     1     1     2   512   502  6.243309088E+00 -6.054802277E+01  1.954887572E+02  2.047459308E+02  3.814697266E-06  0.00000E+00  9.000E+00
#rwgt            1           1   3.8743165876972220E-002          26       27481           0
</event>
<event>
      5   9999  3.70600E-02  1.15193E+01 -1.00000E+00  1.88910E-01
      21    -1     0     0   502   511  0.000000000E+00  0.000000000E+00  2.660987533E+02  2.660987533E+02  0.000000000E+00  0.00000E+00  9.000E+00
      21    -1     0     0   501   502  0.000000000E+00  0.000000000E+00 -2.199142771E+02  2.199142771E+02  0.000000000E+00  0.00000E+00  9.000E+00
      25     1     1     2     0     0  1.704922946E+02  1.630810022E+01 -6.236349022E+01  2.210153423E+02  1.250000000E+02  0.00000E+00  9.000E+00
      25     1     1     2     0     0 -1.638896089E+02 -2.574730535E+01  6.160657856E+01  2.166635598E+02  1.250000000E+02  0.00000E+00  9.000E+00
      21     1     1     2   501   511 -6.602685668E+00  9.439205130E+00  4.694138786E+01  4.833412816E+01  6.743495762E-07  0.00000E+00  9.000E+00
#rwgt            1           1   3.6489895465642776E-002          26       27783           0
</event>
<event>
      5   9999  3.70600E-02  3.07203E+01 -1.00000E+00  1.52325E-01
      21    -1     0     0   502   501  0.000000000E+00  0.000000000E+00  2.858253814E+02  2.858253814E+02  0.000000000E+00  0.00000E+00  9.000E+00
      21    -1     0     0   512   502  0.000000000E+00  0.000000000E+00 -4.567663830E+02  4.567663830E+02  0.000000000E+00  0.00000E+00  9.000E+00
      25     1     1     2     0     0 -3.101462999E+02  9.903927440E+00 -6.948692942E+01  3.416756480E+02  1.250000000E+02  0.00000E+00  9.000E+00
      25     1     1     2     0     0  3.076927964E+02  2.071820918E+01 -4.385558457E+01  3.356373243E+02  1.250000000E+02  0.00000E+00  9.000E+00
      21     1     1     2   512   501  2.453503471E+00 -3.062213662E+01 -5.759848756E+01  6.527879212E+01  9.536743164E-07  0.00000E+00  9.000E+00
#rwgt            1           1   3.4576440585533996E-002          26       28405           0
</event>
<event>
      5   9999  3.70600E-02  4.07652E+01 -1.00000E+00  1.44329E-01
      21    -1     0     0   511   501  0.000000000E+00  0.000000000E+00  1.123356677E+02  1.123356677E+02  0.000000000E+00  0.00000E+00  9.000E+00
      21    -1     0     0   501   502  0.000000000E+00  0.000000000E+00 -5.160533946E+02  5.160533946E+02  0.000000000E+00  0.00000E+00  9.000E+00
      25     1     1     2     0     0 -8.302407032E+01  1.419138049E+02 -2.292435373E+02  3.085613775E+02  1.250000000E+02  0.00000E+00  9.000E+00
      25     1     1     2     0     0  1.229662962E+02 -1.337640678E+02 -1.707054608E+02  2.788886699E+02  1.250000000E+02  0.00000E+00  9.000E+00
      21     1     1     2   511   502 -3.994222590E+01 -8.149737126E+00 -3.768728913E+00  4.093901493E+01  4.440446027E-07  0.00000E+00  9.000E+00
#rwgt            1           1   7.5560873555059763E-002          26       28708           0
</event>
<event>
      5   9999  3.70600E-02  7.12360E+01 -1.00000E+00  1.30835E-01
      21    -1     0     0   502   501  0.000000000E+00  0.000000000E+00  5.444959091E+02  5.444959091E+02  0.000000000E+00  0.00000E+00  9.000E+00
      21    -1     0     0   501   512  0.000000000E+00  0.000000000E+00 -2.840665590E+02  2.840665590E+02  0.000000000E+00  0.00000E+00  9.000E+00
      25     1     1     2     0     0 -4.218131540E+00 -9.716747829E+01  4.848505525E+02  5.100631037E+02  1.250000000E+02  0.00000E+00  9.000E+00
      25     1     1     2     0     0  4.509487301E+01  3.882664423E+01 -1.999052457E+02  2.431628325E+02  1.250000000E+02  0.00000E+00  9.000E+00
      21     1     1     2   502   512 -4.087674147E+01  5.834083406E+01 -2.451595671E+01  7.533653194E+01  2.023048729E-06  0.00000E+00  9.000E+00
#rwgt            1           1   3.9675241903646463E-002          26       29090           0
</event>
<event>
      5   9999  3.70600E-02  6.04324E+01 -1.00000E+00  1.34535E-01
      21    -1     0     0   511   501  0.000000000E+00  0.000000000E+00  2.386911219E+02  2.386911219E+02  0.000000000E+00  0.00000E+00  9.000E+00
      21    -1     0     0   501   502  0.000000000E+00  0.000000000E+00 -7.891177562E+02  7.891177562E+02  0.000000000E+00  0.00000E+00  9.000E+00
      25     1     1     2     0     0 -2.061032939E+02 -1.075224845E+02 -3.862004925E+02  4.677771615E+02  1.250000000E+02  0.00000E+00  9.000E+00
      25     1     1     2     0     0  2.499915527E+02  6.597861332E+01 -2.976220471E+02  4.135853440E+02  1.250000000E+02  0.00000E+00  9.000E+00
      21     1     1     2   511   502 -4.388825886E+01  4.154387118E+01  1.333959053E+02  1.464463726E+02  1.907348633E-06  0.00000E+00  9.000E+00
#rwgt            1           1   1.4333097916435486E-002          26       29340           0
</event>
<event>
      5   9999  3.70600E-02  2.80901E+01 -1.00000E+00  1.55048E-01
      21    -1     0     0   512   501  0.000000000E+00  0.000000000E+00  2.587016089E+02  2.587016089E+02  0.000000000E+00  0.00000E+00  9.000E+00
      21    -1     0     0   501   502  0.000000000E+00  0.000000000E+00 -1.942242404E+02  1.942242404E+02  0.000000000E+00  0.00000E+00  9.000E+00
      25     1     1     2     0     0  5.831262283E+01  1.095201385E+02 -7.139433649E+01  1.900451894E+02  1.250000000E+02  0.00000E+00  9.000E+00
      25     1     1     2     0     0 -6.380667654E+01 -1.370677618E+02  1.257776948E+02  2.330319545E+02  1.250000000E+02  0.00000E+00  9.000E+00
      21     1     1     2   512   502  5.494053711E+00  2.754762331E+01  1.009401011E+01  2.984870544E+01  4.298152060E-07  0.00000E+00  9.000E+00
#rwgt            1           1   3.1525368389605096E-002          26       29823           0
</event>
<event>
      5   9999  3.70600E-02  5.91986E+01 -1.00000E+00  1.35014E-01
      21    -1     0     0   502   501  0.000000000E+00  0.000000000E+00  2.725361635E+02  2.725361635E+02  0.000000000E+00  0.00000E+00  9.000E+00
      21    -1     0     0   501   511  0.000000000E+00  0.000000000E+00 -5.721358936E+02  5.721358936E+02  0.000000000E+00  0.00000E+00  9.000E+00
      25     1     1     2     0     0 -8.307166515E+01 -2.224620305E+02 -4.915595916E+01  2.728214890E+02  1.250000000E+02  0.00000E+00  9.000E+00
      25     1     1     2     0     0  1.392778580E+02  2.410453651E+02  9.437868315E+00  3.053117475E+02  1.250000000E+02  0.00000E+00  9.000E+00
      21     1     1     2   502   511 -5.620619287E+01 -1.858333464E+01 -2.598816393E+02  2.665388206E+02  5.394796609E-06  0.00000E+00  9.000E+00
#rwgt            1           1   3.1049419523650864E-002          26       30184           0
</event>
<event>
      5   9999 -3.70600E-02  4.50471E+01 -1.00000E+00  1.41708E-01
      21    -1     0     0   502   501  0.000000000E+00  0.000000000E+00  8.668454904E+01  8.668454904E+01  0.000000000E+00  0.00000E+00  9.000E+00
      21    -1     0     0   501   512  0.000000000E+00  0.000000000E+00 -7.432196426E+02  7.432196426E+02  0.000000000E+00  0.00000E+00  9.000E+00
      25     1     1     2     0     0 -6.268834977E+01 -2.295150847E+01 -2.805614873E+01  1.444601967E+02  1.250000000E+02  0.00000E+00  9.000E+00
      25     1     1     2     0     0  8.215799183E+01  6.357379415E+01 -2.150130197E+02  2.695313740E+02  1.250000000E+02  0.00000E+00  9.000E+00
      21     1     1     2   502   512 -1.946964206E+01 -4.062228569E+01 -4.134659252E+02  4.159126210E+02  5.394796609E-06  0.00000E+00  9.000E+00
#rwgt            1           1  -2.3993445487767693E-002          26       31071           0
</event>
<event>
      5   9999  3.70600E-02  7.07010E+01 -1.00000E+00  1.31000E-01
      21    -1     0     0   511   501  0.000000000E+00  0.000000000E+00  2.160460624E+02  2.160460624E+02  0.000000000E+00  0.00000E+00  9.000E+00
      21    -1     0     0   501   502  0.000000000E+00  0.000000000E+00 -6.937515969E+02  6.937515969E+02  0.000000000E+00  0.00000E+00  9.000E+00
      25     1     1     2     0     0  6.763747509E+01  2.661813427E+02 -3.766880060E+02  4.826449928E+02  1.250000000E+02  0.00000E+00  9.000E+00
      25     1     1     2     0     0 -1.239023768E+02 -2.233689801E+02 -1.675527267E+02  3.300672908E+02  1.250000000E+02  0.00000E+00  9.000E+00
      21     1     1     2   511   502  5.626490171E+01 -4.281236256E+01  6.653519830E+01  9.708537565E+01  2.336015456E-06  0.00000E+00  9.000E+00
#rwgt            1           1   4.0817507613457822E-002          26       31313           0
</event>
<event>
      5   9999  3.70600E-02  1.57506E+02 -1.00000E+00  1.15558E-01
      21    -1     0     0   502   512  0.000000000E+00  0.000000000E+00  6.524940424E+02  6.524940424E+02  0.000000000E+00  0.00000E+00  9.000E+00
      21    -1     0     0   501   502  0.000000000E+00  0.000000000E+00 -2.682069254E+02  2.682069254E+02  0.000000000E+00  0.00000E+00  9.000E+00
      25     1     1     2     0     0 -1.485644334E+02 -2.717482168E+02  3.670747560E+01  3.359924448E+02  1.250000000E+02  0.00000E+00  9.000E+00
      25     1     1     2     0     0  1.566133269E+02  1.144476031E+02  3.327729319E+01  2.331488071E+02  1.250000000E+02  0.00000E+00  9.000E+00
      21     1     1     2   501   512 -8.048893582E+00  1.573006137E+02  3.143023482E+02  3.515597159E+02  0.000000000E+00  0.00000E+00  9.000E+00
#rwgt            1           1   2.7828965854517135E-002          26       31496           0
</event>
<event>
      5   9999  3.70600E-02  1.02028E+02 -1.00000E+00  1.23435E-01
      21    -1     0     0   511   501  0.000000000E+00  0.000000000E+00  4.538409474E+02  4.538409474E+02  0.000000000E+00  0.00000E+00  9.000E+00
      21    -1     0     0   501   502  0.000000000E+00  0.000000000E+00 -4.625098473E+02  4.625098473E+02  0.000000000E+00  0.00000E+00  9.000E+00
      25     1     1     2     0     0  2.446007194E+00 -9.782348831E+00 -3.187378863E+02  3.425208277E+02  1.250000000E+02  0.00000E+00  9.000E+00
      25     1     1     2     0     0 -9.193460901E+01 -3.922380883E+01 -7.408094727E+01  1.763617483E+02  1.250000000E+02  0.00000E+00  9.000E+00
      21     1     1     2   511   502  8.948860182E+01  4.900615766E+01  3.841499336E+02  3.974682187E+02  0.000000000E+00  0.00000E+00  9.000E+00
#rwgt            1           1   3.4520331992295795E-002          26       31634           0
</event>
<event>
      5   9999  3.70600E-02  2.51432E+01 -1.00000E+00  1.58562E-01
      21    -1     0     0   502   501  0.000000000E+00  0.000000000E+00  4.493683082E+02  4.493683082E+02  0.000000000E+00  0.00000E+00  9.000E+00
      21    -1     0     0   512   502  0.000000000E+00  0.000000000E+00 -8.845315323E+01  8.845315323E+01  0.000000000E+00  0.00000E+00  9.000E+00
      25     1     1     2     0     0 -2.199719565E+01 -7.525940218E+01  4.662966665E+01  1.547487643E+02  1.250000000E+02  0.00000E+00  9.000E+00
      25     1     1     2     0     0  4.203581282E+01  6.007279350E+01  3.249207431E+02  3.557727356E+02  1.250000000E+02  0.00000E+00  9.000E+00
      21     1     1     2   512   501 -2.003861717E+01  1.518660868E+01 -1.063525474E+01  2.729996162E+01  3.769728732E-07  0.00000E+00  9.000E+00
#rwgt            1           1   3.7107101534231947E-002          26       31898           0
</event>
<event>
      5   9999  3.70600E-02  1.76643E+02 -1.00000E+00  1.13646E-01
      21    -1     0     0   502   501  0.000000000E+00  0.000000000E+00  2.882953407E+02  2.882953407E+02  0.000000000E+00  0.00000E+00  9.000E+00
      21    -1     0     0   511   502  0.000000000E+00  0.000000000E+00 -5.414408169E+02  5.414408169E+02  0.000000000E+00  0.00000E+00  9.000E+00
      25     1     1     2     0     0  5.423515029E+01 -4.749871430E+00  6.920837259E+01  1.529013134E+02  1.250000000E+02  0.00000E+00  9.000E+00
      25     1     1     2     0     0 -2.086091943E+02  9.060707641E+01  5.037484510E+01  2.643672886E+02  1.250000000E+02  0.00000E+00  9.000E+00
      21     1     1     2   511   501  1.543740440E+02 -8.585720498E+01 -3.727286939E+02  4.124675556E+02  5.394796609E-06  0.00000E+00  9.000E+00
#rwgt            1           1   3.8549887640571712E-002          26       32183           0
</event>
<event>
      5   9999  3.70600E-02  4.27277E+01 -1.00000E+00  1.43083E-01
      21    -1     0     0   502   512  0.000000000E+00  0.000000000E+00  1.000724555E+03  1.000724555E+03  0.000000000E+00  0.00000E+00  9.000E+00
      21    -1     0     0   501   502  0.000000000E+00  0.000000000E+00 -1.029475629E+02  1.029475629E+02  0.000000000E+00  0.00000E+00  9.000E+00
      25     1     1     2     0     0  3.624166206E+01 -7.302613531E+01 -3.473601496E+01  1.532248845E+02  1.250000000E+02  0.00000E+00  9.000E+00
      25     1     1     2     0     0 -7.662950423E+00  4.126276690E+01  5.513963677E+02  5.669429346E+02  1.250000000E+02  0.00000E+00  9.000E+00
      21     1     1     2   501   512 -2.857871163E+01  3.176336841E+01  3.811166393E+02  3.835042987E+02  5.394796609E-06  0.00000E+00  9.000E+00
#rwgt            1           1   4.6210867877508652E-002          26       32241           0
</event>
<event>
      5   9999  3.70600E-02  4.84916E+01 -1.00000E+00  1.39837E-01
      21    -1     0     0   502   501  0.000000000E+00  0.000000000E+00  6.726784573E+02  6.726784573E+02  0.000000000E+00  0.00000E+00  9.000E+00
      21    -1     0     0   501   511  0.000000000E+00  0.000000000E+00 -8.145540022E+01  8.145540022E+01  0.000000000E+00  0.00000E+00  9.000E+00
      25     1     1     2     0     0 -6.414523560E+01 -1.050278086E+02  3.199265573E+02  3.648608692E+02  1.250000000E+02  0.00000E+00  9.000E+00
      25     1     1     2     0     0  3.432209486E+01  1.432641697E+02  2.798184439E+02  3.400382185E+02  1.250000000E+02  0.00000E+00  9.000E+00
      21     1     1     2   502   511  2.982314074E+01 -3.823636104E+01 -8.521944051E+00  4.923476982E+01  9.078709013E-07  0.00000E+00  9.000E+00
#rwgt            1           1   4.3867569594969562E-002          26       33140           0
</event>
<event>
      5   9999  3.70600E-02  2.56881E+01 -1.00000E+00  1.57870E-01
      21    -1     0     0   502   501  0.000000000E+00  0.000000000E+00  5.487912252E+02  5.487912252E+02  0.000000000E+00  0.00000E+00  9.000E+00
      21    -1     0     0   501   512  0.000000000E+00  0.000000000E+00 -9.555473278E+01  9.555473278E+01  0.000000000E+00  0.00000E+00  9.000E+00
      25     1     1     2     0     0  1.293621598E+02  9.955994531E+00  1.296018953E+02  2.219354444E+02  1.250000000E+02  0.00000E+00  9.000E+00
      25     1     1     2     0     0 -1.469335819E+02  8.782313982E+00  3.406635250E+02  3.915906585E+02  1.250000000E+02  0.00000E+00  9.000E+00
      21     1     1     2   502   512  1.757142210E+01 -1.873830851E+01 -1.702892797E+01  3.081985510E+01  7.152557373E-07  0.00000E+00  9.000E+00
#rwgt            1           1   3.5561129353911231E-002          26       33591           0
</event>
<event>
      5   9999  3.70600E-02  7.93230E+01 -1.00000E+00  1.28527E-01
      21    -1     0     0   511   501  0.000000000E+00  0.000000000E+00  2.848990980E+03  2.848990980E+03  0.000000000E+00  0.00000E+00  9.000E+00
      21    -1     0     0   501   502  0.000000000E+00  0.000000000E+00 -1.881159101E+01  1.881159101E+01  0.000000000E+00  0.00000E+00  9.000E+00
      25     1     1     2     0     0  7.538693667E+01 -1.257565438E+02  1.179120397E+03  1.194758473E+03  1.250000000E+02  0.00000E+00  9.000E+00
      25     1     1     2     0     0  1.729056332E+00  1.443377883E+02  1.149893946E+03  1.165640370E+03  1.250000000E+02  0.00000E+00  9.000E+00
      21     1     1     2   511   502 -7.711599300E+01 -1.858124443E+01  5.011650468E+02  5.074037280E+02  9.344061824E-06  0.00000E+00  9.000E+00
#rwgt            1           1   8.2872160711555246E-002          26       33937           0
</event>
<event>
      5   9999  3.70600E-02  6.47341E+01 -1.00000E+00  1.32962E-01
      21    -1     0     0   502   501  0.000000000E+00  0.000000000E+00  4.180416103E+02  4.180416103E+02  0.000000000E+00  0.00000E+00  9.000E+00
      21    -1     0     0   512   502  0.000000000E+00  0.000000000E+00 -1.824312631E+02  1.824312631E+02  0.000000000E+00  0.00000E+00  9.000E+00
      25     1     1     2     0     0  1.395048958E+02 -6.252420593E+01 -6.924244481E+01  2.092615790E+02  1.250000000E+02  0.00000E+00  9.000E+00
      25     1     1     2     0     0 -7.495517653E+01  5.764140015E+01  2.818745916E+02  3.225199139E+02  1.250000000E+02  0.00000E+00  9.000E+00
      21     1     1     2   512   501 -6.454971927E+01  4.882805784E+00  2.297820043E+01  6.869138043E+01  1.011524364E-06  0.00000E+00  9.000E+00
#rwgt            1           1   4.5714784234216085E-002          26       34354           0
</event>
<event>
      5   9999  3.70600E-02  6.01598E+01 -1.00000E+00  1.34640E-01
      21    -1     0     0   502   501  0.000000000E+00  0.000000000E+00  3.486328434E+02  3.486328434E+02  0.000000000E+00  0.00000E+00  9.000E+00
      21    -1     0     0   501   511  0.000000000E+00  0.000000000E+00 -1.628399841E+02  1.628399841E+02  0.000000000E+00  0.00000E+00  9.000E+00
      25     1     1     2     0     0 -2.761525767E+01 -1.097259699E+02  1.091502720E+01  1.689571802E+02  1.250000000E+02  0.00000E+00  9.000E+00
      25     1     1     2     0     0  7.564577453E+01  1.459512357E+02  1.898496643E+02  2.805208395E+02  1.250000000E+02  0.00000E+00  9.000E+00
      21     1     1     2   502   511 -4.803051686E+01 -3.622526575E+01 -1.497183217E+01  6.199480774E+01  1.079486029E-06  0.00000E+00  9.000E+00
#rwgt            1           1   4.5092203169371230E-002          26       34506           0
</event>
<event>
      5   9999  3.70600E-02  1.64197E+02 -1.00000E+00  1.14857E-01
      21    -1     0     0   502   501  0.000000000E+00  0.000000000E+00  1.316103880E+02  1.316103880E+02  0.000000000E+00  0.00000E+00  9.000E+00
      21    -1     0     0   501   512  0.000000000E+00  0.000000000E+00 -1.035016822E+03  1.035016822E+03  0.000000000E+00  0.00000E+00  9.000E+00
      25     1     1     2     0     0  7.395275219E+01 -1.995356510E+01  3.876590220E+01  1.516408569E+02  1.250000000E+02  0.00000E+00  9.000E+00
      25     1     1     2     0     0  9.024425473E+01  1.986907871E+01 -7.317640764E+02  7.480925540E+02  1.250000000E+02  0.00000E+00  9.000E+00
      21     1     1     2   502   512 -1.641970069E+02  8.448638243E-02 -2.104082596E+02  2.668937990E+02  0.000000000E+00  0.00000E+00  9.000E+00
#rwgt            2          11   2.6375226384207509E-003          26       34694           0
</event>
<event>
      5   9999  3.70600E-02  4.32985E+01 -1.00000E+00  1.42735E-01
      21    -1     0     0   502   501  0.000000000E+00  0.000000000E+00  1.084355046E+02  1.084355046E+02  0.000000000E+00  0.00000E+00  9.000E+00
      21    -1     0     0   511   502  0.000000000E+00  0.000000000E+00 -6.811447129E+02  6.811447129E+02  0.000000000E+00  0.00000E+00  9.000E+00
      25     1     1     2     0     0  1.400016472E+02 -2.618314889E+01 -3.049018092E+02  3.589932196E+02  1.250000000E+02  0.00000E+00  9.000E+00
      25     1     1     2     0     0 -1.030729845E+02  4.878912530E+01 -1.035484056E+01  1.695188532E+02  1.250000000E+02  0.00000E+00  9.000E+00
      21     1     1     2   511   501 -3.692866269E+01 -2.260597641E+01 -2.574525585E+02  2.610681447E+02  0.000000000E+00  0.00000E+00  9.000E+00
#rwgt            1           1   4.1552097309156141E-002          26       34954           0
</event>
<event>
      5   9999  3.70600E-02  7.10687E+01 -1.00000E+00  1.30886E-01
      21    -1     0     0   502   501  0.000000000E+00  0.000000000E+00  1.594820749E+02  1.594820749E+02  0.000000000E+00  0.00000E+00  9.000E+00
      -4    -1     0     0     0   502  0.000000000E+00  0.000000000E+00 -3.086367518E+02  3.086367518E+02  0.000000000E+00  0.00000E+00  9.000E+00
      25     1     1     2     0     0 -5.493768128E+01 -1.209218448E+01  1.646437556E+01  1.380595720E+02  1.250000000E+02  0.00000E+00  9.000E+00
      25     1     1     2     0     0  6.898817853E+01 -5.757378404E+01 -4.554811028E+00  1.540125180E+02  1.250000000E+02  0.00000E+00  9.000E+00
      -4     1     1     2     0   501 -1.405049725E+01  6.966596852E+01 -1.610642414E+02  1.760467367E+02  1.907348633E-06  0.00000E+00  9.000E+00
#rwgt            1           1   4.3252590764335075E-002          26       35894           0
</event>
<event>
      5   9999  3.70600E-02  2.97673E+01 -1.00000E+00  1.53272E-01
      21    -1     0     0   502   511  0.000000000E+00  0.000000000E+00  6.125961204E+02  6.125961204E+02  0.000000000E+00  0.00000E+00  9.000E+00
      21    -1     0     0   501   502  0.000000000E+00  0.000000000E+00 -1.438214064E+02  1.438214064E+02  0.000000000E+00  0.00000E+00  9.000E+00
      25     1     1     2     0     0  9.256005176E+01  1.709943464E+02  1.345173343E+02  2.674440930E+02  1.250000000E+02  0.00000E+00  9.000E+00
      25     1     1     2     0     0 -7.941087843E+01 -1.442886653E+02  6.308380037E+01  2.161709333E+02  1.250000000E+02  0.00000E+00  9.000E+00
      21     1     1     2   501   511 -1.314917334E+01 -2.670568106E+01  2.711735793E+02  2.728025004E+02  0.000000000E+00  0.00000E+00  9.000E+00
#rwgt            1           1   3.9672496334865907E-002          26       36229           0
</event>
<event>
      5   9999  3.70600E-02  6.42726E+01 -1.00000E+00  1.33124E-01
      21    -1     0     0   502   501  0.000000000E+00  0.000000000E+00  3.699478481E+02  3.699478481E+02  0.000000000E+00  0.00000E+00  9.000E+00
      21    -1     0     0   501   512  0.000000000E+00  0.000000000E+00 -8.572907218E+02  8.572907218E+02  0.000000000E+00  0.00000E+00  9.000E+00
      25     1     1     2     0     0 -1.392512665E+02 -9.168500525E+01  1.252410076E+02  2.431200637E+02  1.250000000E+02  0.00000E+00  9.000E+00
      25     1     1     2     0     0  8.805120428E+01  1.305375780E+02  1.295752093E+02  2.391815392E+02  1.250000000E+02  0.00000E+00  9.000E+00
      21     1     1     2   502   512  5.120006222E+01 -3.885257270E+01 -7.421590907E+02  7.449369669E+02  1.078959322E-05  0.00000E+00  9.000E+00
#rwgt            1           1   3.9650768210534794E-002          26       36913           0
</event>
<event>
      5   9999  3.70600E-02  1.58697E+01 -1.00000E+00  1.75105E-01
      21    -1     0     0   511   501  0.000000000E+00  0.000000000E+00  1.165938811E+02  1.165938811E+02  0.000000000E+00  0.00000E+00  9.000E+00
      21    -1     0     0   501   502  0.000000000E+00  0.000000000E+00 -8.830999423E+02  8.830999423E+02  0.000000000E+00  0.00000E+00  9.000E+00
      25     1     1     2     0     0  1.021395022E+02  2.662971360E+02 -2.950310181E+02  4.289696308E+02  1.250000000E+02  0.00000E+00  9.000E+00
      25     1     1     2     0     0 -8.737954189E+01 -2.604670007E+02 -4.631025692E+02  5.527813604E+02  1.250000000E+02  0.00000E+00  9.000E+00
      21     1     1     2   511   502 -1.475996027E+01 -5.830135290E+00 -8.372473879E+00  1.794283210E+01  4.298152060E-07  0.00000E+00  9.000E+00
#rwgt            1           1  0.27730432688608481               26       37059           0
</event>
<event>
      5   9999  3.70600E-02  4.06359E+01 -1.00000E+00  1.44414E-01
      21    -1     0     0   502   512  0.000000000E+00  0.000000000E+00  4.379625412E+02  4.379625412E+02  0.000000000E+00  0.00000E+00  9.000E+00
      21    -1     0     0   501   502  0.000000000E+00  0.000000000E+00 -1.980476877E+02  1.980476877E+02  0.000000000E+00  0.00000E+00  9.000E+00
      25     1     1     2     0     0  4.482370826E+01  1.966580110E+02 -2.023463503E+01  2.381553664E+02  1.250000000E+02  0.00000E+00  9.000E+00
      25     1     1     2     0     0 -6.017916880E+00 -1.846003468E+02  1.227459466E+02  2.545684009E+02  1.250000000E+02  0.00000E+00  9.000E+00
      21     1     1     2   501   512 -3.880579138E+01 -1.205766425E+01  1.374035419E+02  1.432864615E+02  0.000000000E+00  0.00000E+00  9.000E+00
#rwgt            1           1   3.3402353982322441E-002          26       37592           0
</event>
<event>
      5   9999  3.70600E-02  1.09572E+02 -1.00000E+00  1.22067E-01
      21    -1     0     0   511   501  0.000000000E+00  0.000000000E+00  1.371524458E+02  1.371524458E+02  0.000000000E+00  0.00000E+00  9.000E+00
      21    -1     0     0   501   502  0.000000000E+00  0.000000000E+00 -6.884363094E+02  6.884363094E+02  0.000000000E+00  0.00000E+00  9.000E+00
      25     1     1     2     0     0  1.787385083E+02 -1.172163529E+02 -2.409350383E+02  3.454878007E+02  1.250000000E+02  0.00000E+00  9.000E+00
      25     1     1     2     0     0 -9.511032309E+01  4.641770033E+01 -3.303452609E+02  3.687188195E+02  1.250000000E+02  0.00000E+00  9.000E+00
      21     1     1     2   511   502 -8.362818516E+01  7.079865261E+01  1.999643564E+01  1.113821350E+02  2.078484985E-06  0.00000E+00  9.000E+00
#rwgt            1           1   3.7256539226162622E-002          26       38024           0
</event>
<event>
      5   9999  3.70600E-02  3.70011E+01 -1.00000E+00  1.46968E-01
      21    -1     0     0   502   501  0.000000000E+00  0.000000000E+00  2.022268284E+02  2.022268284E+02  0.000000000E+00  0.00000E+00  9.000E+00
      21    -1     0     0   512   502  0.000000000E+00  0.000000000E+00 -2.682969649E+02  2.682969649E+02  0.000000000E+00  0.00000E+00  9.000E+00
      25     1     1     2     0     0  4.048119706E+01  1.919958394E+01 -1.832325323E+02  2.262885596E+02  1.250000000E+02  0.00000E+00  9.000E+00
      25     1     1     2     0     0 -7.392064928E+01 -3.360255982E+00  1.391826540E+02  2.011774463E+02  1.250000000E+02  0.00000E+00  9.000E+00
      21     1     1     2   512   501  3.343945221E+01 -1.583932796E+01 -2.202025831E+01  4.305778734E+01  2.384185791E-07  0.00000E+00  9.000E+00
#rwgt            1           1   3.9870866603100644E-002          26       38224           0
</event>
<event>
      5   9999  3.70600E-02  3.90050E+01 -1.00000E+00  1.45519E-01
      21    -1     0     0   502   511  0.000000000E+00  0.000000000E+00  2.982569271E+02  2.982569271E+02  0.000000000E+00  0.00000E+00  9.000E+00
      21    -1     0     0   501   502  0.000000000E+00  0.000000000E+00 -3.733008328E+02  3.733008328E+02  0.000000000E+00  0.00000E+00  9.000E+00
      25     1     1     2     0     0  1.266408257E+02  4.482863748E+01 -1.662661819E+02  2.476225933E+02  1.250000000E+02  0.00000E+00  9.000E+00
      25     1     1     2     0     0 -1.209761634E+02 -8.342009885E+01 -1.078878267E+02  2.210405577E+02  1.250000000E+02  0.00000E+00  9.000E+00
      21     1     1     2   501   511 -5.664662333E+00  3.859146136E+01  1.991101028E+02  2.028946089E+02  2.697398305E-06  0.00000E+00  9.000E+00
#rwgt            1           1   4.1745639413583648E-002          26       38825           0
</event>
<event>
      5   9999  3.70600E-02  5.17957E+01 -1.00000E+00  1.38205E-01
      21    -1     0     0   512   501  0.000000000E+00  0.000000000E+00  1.924924486E+02  1.924924486E+02  0.000000000E+00  0.00000E+00  9.000E+00
      21    -1     0     0   501   502  0.000000000E+00  0.000000000E+00 -3.559704212E+02  3.559704212E+02  0.000000000E+00  0.00000E+00  9.000E+00
      25     1     1     2     0     0 -1.709377828E+02  5.703872434E+01 -7.496716534E+01  2.317719084E+02  1.250000000E+02  0.00000E+00  9.000E+00
      25     1     1     2     0     0  1.439004276E+02 -1.012176898E+02 -1.285694703E+02  2.512119872E+02  1.250000000E+02  0.00000E+00  9.000E+00
      21     1     1     2   512   502  2.703735522E+01  4.417896551E+01  4.005866311E+01  6.547897419E+01  0.000000000E+00  0.00000E+00  9.000E+00
#rwgt            1           1   1.6088096537049339E-002          26       38995           0
</event>
<event>
      5   9999  3.70600E-02  2.75560E+02 -1.00000E+00  1.06804E-01
      21    -1     0     0   502   501  0.000000000E+00  0.000000000E+00  2.960963392E+02  2.960963392E+02  0.000000000E+00  0.00000E+00  9.000E+00
      21    -1     0     0   511   502  0.000000000E+00  0.000000000E+00 -7.042666758E+02  7.042666758E+02  0.000000000E+00  0.00000E+00  9.000E+00
      25     1     1     2     0     0 -2.394513324E+02 -1.252150378E+02 -2.604608581E+02  3.955762947E+02  1.250000000E+02  0.00000E+00  9.000E+00
      25     1     1     2     0     0 -3.414278833E+01  1.580679966E+02  1.059774909E+02  2.302334687E+02  1.250000000E+02  0.00000E+00  9.000E+00
      21     1     1     2   511   501  2.735941207E+02 -3.285295881E+01 -2.536869694E+02  3.745532515E+02  4.672030912E-06  0.00000E+00  9.000E+00
#rwgt            1           1   3.9911077139813934E-002          26       39409           0
</event>
<event>
      5   9999  3.70600E-02  2.48657E+01 -1.00000E+00  1.58923E-01
      21    -1     0     0   502   501  0.000000000E+00  0.000000000E+00  1.233895405E+03  1.233895405E+03  0.000000000E+00  0.00000E+00  9.000E+00
      21    -1     0     0   512   502  0.000000000E+00  0.000000000E+00 -4.222342910E+01  4.222342910E+01  0.000000000E+00  0.00000E+00  9.000E+00
      25     1     1     2     0     0 -8.866439260E+01  9.380604300E+01  5.522179250E+02  5.807155800E+02  1.250000000E+02  0.00000E+00  9.000E+00
      25     1     1     2     0     0  7.433472168E+01 -1.141275003E+02  6.441021049E+02  6.701069010E+02  1.250000000E+02  0.00000E+00  9.000E+00
      21     1     1     2   512   501  1.432967092E+01  2.032145728E+01 -4.648053665E+00  2.529635344E+01  5.057621821E-07  0.00000E+00  9.000E+00
#rwgt            1           1   3.2925461965766414E-002          26       39611           0
</event>
<event>
      5   9999  3.70600E-02  6.57065E+01 -1.00000E+00  1.32626E-01
      21    -1     0     0   502   501  0.000000000E+00  0.000000000E+00  5.083200515E+02  5.083200515E+02  0.000000000E+00  0.00000E+00  9.000E+00
      21    -1     0     0   501   511  0.000000000E+00  0.000000000E+00 -1.602973644E+02  1.602973644E+02  0.000000000E+00  0.00000E+00  9.000E+00
      25     1     1     2     0     0 -2.763191031E+01  6.934985451E+01  3.852275306E+02  4.118229900E+02  1.250000000E+02  0.00000E+00  9.000E+00
      25     1     1     2     0     0  6.828457125E+01 -1.209706590E+02 -1.515548371E+01  1.874869907E+02  1.250000000E+02  0.00000E+00  9.000E+00
      21     1     1     2   502   511 -4.065266095E+01  5.162080449E+01 -2.204935976E+01  6.930743513E+01  1.526623782E-06  0.00000E+00  9.000E+00
#rwgt            1           1   4.2517381925633327E-002          26       40094           0
</event>
<event>
      5   9999  3.70600E-02  4.04698E+01 -1.00000E+00  1.44524E-01
      21    -1     0     0   502   501  0.000000000E+00  0.000000000E+00  7.952614599E+02  7.952614599E+02  0.000000000E+00  0.00000E+00  9.000E+00
      21    -1     0     0   501   512  0.000000000E+00  0.000000000E+00 -9.927814509E+01  9.927814509E+01  0.000000000E+00  0.00000E+00  9.000E+00
      25     1     1     2     0     0  5.398859552E+01  1.797227967E+02  3.162022225E+02  3.883605253E+02  1.250000000E+02  0.00000E+00  9.000E+00
      25     1     1     2     0     0 -9.444493013E+01 -1.786785221E+02  3.966072661E+02  4.623507139E+02  1.250000000E+02  0.00000E+00  9.000E+00
      21     1     1     2   502   512  4.045633460E+01 -1.044274541E+00 -1.682617386E+01  4.382836577E+01  4.129530925E-07  0.00000E+00  9.000E+00
#rwgt            1           1   4.5860242721376863E-002          26       40751           0
</event>
<event>
      5   9999  3.70600E-02  6.42284E+01 -1.00000E+00  1.33140E-01
      21    -1     0     0   502   501  0.000000000E+00  0.000000000E+00  1.134334695E+02  1.134334695E+02  0.000000000E+00  0.00000E+00  9.000E+00
       1    -1     0     0   501     0  0.000000000E+00  0.000000000E+00 -1.737755713E+03  1.737755713E+03  0.000000000E+00  0.00000E+00  9.000E+00
      25     1     1     2     0     0  1.460725989E+02 -1.963991228E+02 -2.033204536E+02  3.418684344E+02  1.250000000E+02  0.00000E+00  9.000E+00
      25     1     1     2     0     0 -1.273628159E+02  1.349562269E+02 -2.458611825E+02  3.324262191E+02  1.250000000E+02  0.00000E+00  9.000E+00
       1     1     1     2   502     0 -1.870978303E+01  6.144289594E+01 -1.175140607E+03  1.176894529E+03  0.000000000E+00  0.00000E+00  9.000E+00
#rwgt            1           1   3.5898490289127172E-002          26       41230           0
</event>
<event>
      5   9999  3.70600E-02  2.78155E+01 -1.00000E+00  1.55353E-01
      21    -1     0     0   502   501  0.000000000E+00  0.000000000E+00  3.679398431E+02  3.679398431E+02  0.000000000E+00  0.00000E+00  9.000E+00
      21    -1     0     0   511   502  0.000000000E+00  0.000000000E+00 -2.073901012E+02  2.073901012E+02  0.000000000E+00  0.00000E+00  9.000E+00
      25     1     1     2     0     0 -1.586168987E+02  4.742869280E+01  1.043580358E+02  2.322162808E+02  1.250000000E+02  0.00000E+00  9.000E+00
      25     1     1     2     0     0  1.740783431E+02 -7.055114710E+01  1.326669305E+02  2.617369832E+02  1.250000000E+02  0.00000E+00  9.000E+00
      21     1     1     2   511   501 -1.546144439E+01  2.312245430E+01 -7.647522439E+01  8.137668033E+01  0.000000000E+00  0.00000E+00  9.000E+00
#rwgt            1           1   2.0838209419510149E-002          26       41361           0
</event>
<event>
      5   9999  3.70600E-02  5.64775E+01 -1.00000E+00  1.36121E-01
       4    -1     0     0   502     0  0.000000000E+00  0.000000000E+00  9.607185042E+02  9.607185042E+02  0.000000000E+00  0.00000E+00  9.000E+00
      21    -1     0     0   501   502  0.000000000E+00  0.000000000E+00 -1.429192067E+02  1.429192067E+02  0.000000000E+00  0.00000E+00  9.000E+00
      25     1     1     2     0     0 -5.664211029E+01  9.334132610E+01  9.708479271E+01  1.922794549E+02  1.250000000E+02  0.00000E+00  9.000E+00
      25     1     1     2     0     0  1.110084023E+02 -7.804395763E+01 -3.908874869E+00  1.845372700E+02  1.250000000E+02  0.00000E+00  9.000E+00
       4     1     1     2   501     0 -5.436629202E+01 -1.529736847E+01  7.246233798E+02  7.268209860E+02  1.078959322E-05  0.00000E+00  9.000E+00
#rwgt            1           1   4.3837969841704981E-002          26       41503           0
</event>
<event>
      5   9999  3.70600E-02  3.83533E+01 -1.00000E+00  1.45979E-01
      -4    -1     0     0     0   501  0.000000000E+00  0.000000000E+00  5.705408709E+01  5.705408709E+01  0.000000000E+00  0.00000E+00  9.000E+00
      21    -1     0     0   501   502  0.000000000E+00  0.000000000E+00 -1.091329528E+03  1.091329528E+03  0.000000000E+00  0.00000E+00  9.000E+00
      25     1     1     2     0     0  1.169999206E+02 -8.068446493E+01 -4.221868837E+02  4.626723777E+02  1.250000000E+02  0.00000E+00  9.000E+00
      25     1     1     2     0     0 -1.115246913E+02  1.186448916E+02 -6.139034359E+02  6.473150668E+02  1.250000000E+02  0.00000E+00  9.000E+00
      -4     1     1     2     0   502 -5.475229300E+00 -3.796042670E+01  1.814878715E+00  3.839617058E+01  8.893384523E-07  0.00000E+00  9.000E+00
#rwgt            1           1   2.6844407054224230E-002          26       41895           0
</event>
<event>
      5   9999  3.70600E-02  2.74719E+01 -1.00000E+00  1.55741E-01
      21    -1     0     0   502   501  0.000000000E+00  0.000000000E+00  4.008662703E+02  4.008662703E+02  0.000000000E+00  0.00000E+00  9.000E+00
      21    -1     0     0   511   502  0.000000000E+00  0.000000000E+00 -1.162392370E+02  1.162392370E+02  0.000000000E+00  0.00000E+00  9.000E+00
      25     1     1     2     0     0 -4.046594040E+01 -7.950907631E+01  3.050015572E+02  3.414822622E+02  1.250000000E+02  0.00000E+00  9.000E+00
      25     1     1     2     0     0  2.047251123E+01  6.066844303E+01  1.584015882E+00  1.404538814E+02  1.250000000E+02  0.00000E+00  9.000E+00
      21     1     1     2   511   501  1.999342917E+01  1.884063328E+01 -2.195853976E+01  3.516936367E+01  2.384185791E-07  0.00000E+00  9.000E+00
#rwgt            1           1   4.0736750071981027E-002          26       42235           0
</event>
<event>
      5   9999  3.70600E-02  1.55482E+01 -1.00000E+00  1.75924E-01
      21    -1     0     0   502   501  0.000000000E+00  0.000000000E+00  1.709539017E+02  1.709539017E+02  0.000000000E+00  0.00000E+00  9.000E+00
      21    -1     0     0   501   512  0.000000000E+00  0.000000000E+00 -2.955963662E+02  2.955963662E+02  0.000000000E+00  0.00000E+00  9.000E+00
      25     1     1     2     0     0 -1.024061975E+02  1.176480971E+02 -5.159342771E+00  1.999493007E+02  1.250000000E+02  0.00000E+00  9.000E+00
      25     1     1     2     0     0  1.179253343E+02 -1.166976440E+02 -7.729662760E+01  2.216404594E+02  1.250000000E+02  0.00000E+00  9.000E+00
      21     1     1     2   502   512 -1.551913681E+01 -9.504530968E-01 -4.218649415E+01  4.496050775E+01  4.768371582E-07  0.00000E+00  9.000E+00
#rwgt            1           1   3.7449226996199715E-002          26       42985           0
</event>
<event>
      5   9999  3.70600E-02  5.23747E+01 -1.00000E+00  1.37933E-01
      21    -1     0     0   502   501  0.000000000E+00  0.000000000E+00  3.438432555E+02  3.438432555E+02  0.000000000E+00  0.00000E+00  9.000E+00
      21    -1     0     0   501   511  0.000000000E+00  0.000000000E+00 -2.438703961E+02  2.438703961E+02  0.000000000E+00  0.00000E+00  9.000E+00
      25     1     1     2     0     0  7.836732660E+01 -1.648234493E+02  1.761480800E+02  2.827743861E+02  1.250000000E+02  0.00000E+00  9.000E+00
      25     1     1     2     0     0 -9.354981970E+01  1.146976216E+02  2.067732066E+01  1.948324017E+02  1.250000000E+02  0.00000E+00  9.000E+00
      21     1     1     2   502   511  1.518249310E+01  5.012582778E+01 -9.685254132E+01  1.101068639E+02  1.907348633E-06  0.00000E+00  9.000E+00
#rwgt            1           1   3.1155548597053086E-002          26       43545           0
</event>
<event>
      5   9999  3.70600E-02  4.33651E+01 -1.00000E+00  1.42695E-01
      21    -1     0     0   502   501  0.000000000E+00  0.000000000E+00  5.087415847E+02  5.087415847E+02  0.000000000E+00  0.00000E+00  9.000E+00
      21    -1     0     0   501   512  0.000000000E+00  0.000000000E+00 -1.297987667E+02  1.297987667E+02  0.000000000E+00  0.00000E+00  9.000E+00
      25     1     1     2     0     0  1.473279741E+01 -2.085026844E+02  2.155783357E+02  3.252528916E+02  1.250000000E+02  0.00000E+00  9.000E+00
      25     1     1     2     0     0 -9.497600344E+00  1.654547731E+02  1.713811125E+02  2.691876150E+02  1.250000000E+02  0.00000E+00  9.000E+00
      21     1     1     2   502   512 -5.235197065E+00  4.304791128E+01 -8.016630065E+00  4.409984480E+01  3.153981341E-07  0.00000E+00  9.000E+00
#rwgt            1           1   3.8240364053355430E-002          26       44161           0
</event>
<event>
      5   9999  3.70600E-02  5.93742E+01  7.55638E-03  1.34945E-01
       2    -1     0     0   501     0  0.000000000E+00  0.000000000E+00  1.732626576E+02  1.732626576E+02  0.000000000E+00  0.00000E+00  9.000E+00
      -2    -1     0     0     0   502  0.000000000E+00  0.000000000E+00 -3.607249771E+02  3.607249771E+02  0.000000000E+00  0.00000E+00  9.000E+00
      25     1     1     2     0     0  4.456781813E+01 -5.586419042E+01 -1.263469488E+01  1.445397305E+02  1.250000000E+02  0.00000E+00  9.000E+00
      25     1     1     2     0     0 -1.033155648E+02  6.446653161E+01  2.921493141E+01  1.769422274E+02  1.250000000E+02  0.00000E+00  9.000E+00
      21     1     1     2   501   502  5.874774666E+01 -8.602341186E+00 -2.040425560E+02  2.125056768E+02  0.000000000E+00  0.00000E+00  9.000E+00
#rwgt            3           7   8.2998820555647715E-005          26       44343           0
</event>
<event>
      5   9999  3.70600E-02  6.85266E+01 -1.00000E+00  1.31688E-01
      21    -1     0     0   502   501  0.000000000E+00  0.000000000E+00  3.534034173E+02  3.534034173E+02  0.000000000E+00  0.00000E+00  9.000E+00
      21    -1     0     0   501   511  0.000000000E+00  0.000000000E+00 -2.371205052E+02  2.371205052E+02  0.000000000E+00  0.00000E+00  9.000E+00
      25     1     1     2     0     0  7.171585572E+01  1.427022648E+01 -1.498521346E+02  2.083925756E+02  1.250000000E+02  0.00000E+00  9.000E+00
      25     1     1     2     0     0 -1.372423402E+01  2.223812710E+01  2.839347992E+02  3.113307872E+02  1.250000000E+02  0.00000E+00  9.000E+00
      21     1     1     2   502   511 -5.799162170E+01 -3.650835358E+01 -1.779975245E+01  7.080055971E+01  8.259061849E-07  0.00000E+00  9.000E+00
#rwgt            1           1   4.2007381206989193E-002          26       44377           0
</event>
<event>
      5   9999  3.70600E-02  9.31034E+01 -1.00000E+00  1.25238E-01
      21    -1     0     0   502   501  0.000000000E+00  0.000000000E+00  3.022791508E+02  3.022791508E+02  0.000000000E+00  0.00000E+00  9.000E+00
      21    -1     0     0   501   512  0.000000000E+00  0.000000000E+00 -2.779954519E+02  2.779954519E+02  0.000000000E+00  0.00000E+00  9.000E+00
      25     1     1     2     0     0  1.571509289E+02  1.392075503E+02 -5.690349151E+01  2.508747972E+02  1.250000000E+02  0.00000E+00  9.000E+00
      25     1     1     2     0     0 -1.308829682E+02 -4.988659915E+01  1.259754108E+02  2.260836753E+02  1.250000000E+02  0.00000E+00  9.000E+00
      21     1     1     2   502   512 -2.626796072E+01 -8.932095116E+01 -4.478822034E+01  1.033161302E+02  0.000000000E+00  0.00000E+00  9.000E+00
#rwgt            1           1   2.7563763788231419E-002          26       44547           0
</event>
<event>
      5   9999  3.70600E-02  2.99089E+02 -1.00000E+00  1.05634E-01
      21    -1     0     0   502   501  0.000000000E+00  0.000000000E+00  4.816857144E+01  4.816857144E+01  0.000000000E+00  0.00000E+00  9.000E+00
       2    -1     0     0   501     0  0.000000000E+00  0.000000000E+00 -3.267890731E+03  3.267890731E+03  0.000000000E+00  0.00000E+00  9.000E+00
      25     1     1     2     0     0  1.434743019E+02 -9.552541670E+01 -3.820404048E+02  4.373669529E+02  1.250000000E+02  0.00000E+00  9.000E+00
      25     1     1     2     0     0  9.020585934E+01 -9.115097807E+01 -1.290556879E+03  1.302922736E+03  1.250000000E+02  0.00000E+00  9.000E+00
       2     1     1     2   502     0 -2.336801613E+02  1.866763948E+02 -1.547124875E+03  1.575769613E+03  0.000000000E+00  0.00000E+00  9.000E+00
#rwgt            2          13   2.2666111457934990E-004          26       44940           0
</event>
<event>
      5   9999  3.70600E-02  2.18480E+01 -1.00000E+00  1.63260E-01
      21    -1     0     0   502   501  0.000000000E+00  0.000000000E+00  7.274835404E+02  7.274835404E+02  0.000000000E+00  0.00000E+00  9.000E+00
      21    -1     0     0   501   511  0.000000000E+00  0.000000000E+00 -5.499574185E+01  5.499574185E+01  0.000000000E+00  0.00000E+00  9.000E+00
      25     1     1     2     0     0 -1.386580242E+02  3.716935518E+01  3.347939981E+02  3.851228763E+02  1.250000000E+02  0.00000E+00  9.000E+00
      25     1     1     2     0     0  1.227362705E+02 -2.220828849E+01  3.298489726E+02  3.741426798E+02  1.250000000E+02  0.00000E+00  9.000E+00
      21     1     1     2   502   511  1.592175370E+01 -1.496106669E+01  7.844827854E+00  2.321372615E+01  1.192092896E-07  0.00000E+00  9.000E+00
#rwgt            1           1   4.4830810653767698E-002          26       45214           0
</event>
<event>
      5   9999  3.70600E-02  4.23284E+01 -1.00000E+00  1.43330E-01
      21    -1     0     0   502   512  0.000000000E+00  0.000000000E+00  3.392736106E+02  3.392736106E+02  0.000000000E+00  0.00000E+00  9.000E+00
      21    -1     0     0   501   502  0.000000000E+00  0.000000000E+00 -2.889780860E+02  2.889780860E+02  0.000000000E+00  0.00000E+00  9.000E+00
      25     1     1     2     0     0 -4.321870832E+01 -1.728776655E+02 -1.691551737E+02  2.756683094E+02  1.250000000E+02  0.00000E+00  9.000E+00
      25     1     1     2     0     0  1.443890194E+00  1.797011896E+02  1.325143439E+02  2.558899250E+02  1.250000000E+02  0.00000E+00  9.000E+00
      21     1     1     2   501   512  4.177481812E+01 -6.823524071E+00  8.693635451E+01  9.669346226E+01  9.536743164E-07  0.00000E+00  9.000E+00
#rwgt            1           1   3.9062796865228996E-002          26       46067           0
</event>
<event>
      5   9999  3.70600E-02  1.66360E+01 -1.00000E+00  1.73247E-01
      21    -1     0     0   502   501  0.000000000E+00  0.000000000E+00  7.023544577E+01  7.023544577E+01  0.000000000E+00  0.00000E+00  9.000E+00
      21    -1     0     0   501   511  0.000000000E+00  0.000000000E+00 -1.449639404E+03  1.449639404E+03  0.000000000E+00  0.00000E+00  9.000E+00
      25     1     1     2     0     0  5.022599906E+01 -1.359503844E+02 -9.290569100E+01  2.127477977E+02  1.250000000E+02  0.00000E+00  9.000E+00
      25     1     1     2     0     0 -4.615105331E+01  1.520795787E+02 -1.005025729E+03  1.025163321E+03  1.250000000E+02  0.00000E+00  9.000E+00
      21     1     1     2   502   511 -4.074945754E+00 -1.612919437E+01 -2.814725383E+02  2.819637315E+02  5.394796609E-06  0.00000E+00  9.000E+00
#rwgt            1           1   3.5347486709799286E-002          26       46532           0
</event>
<event>
      5   9999  3.70600E-02  4.81482E+01 -1.00000E+00  1.40015E-01
      21    -1     0     0   512   501  0.000000000E+00  0.000000000E+00  7.668745914E+02  7.668745914E+02  0.000000000E+00  0.00000E+00  9.000E+00
      21    -1     0     0   501   502  0.000000000E+00  0.000000000E+00 -8.241054596E+02  8.241054596E+02  0.000000000E+00  0.00000E+00  9.000E+00
      25     1     1     2     0     0 -9.316129779E+00  1.177648327E+02 -1.534382225E+02  2.304856486E+02  1.250000000E+02  0.00000E+00  9.000E+00
      25     1     1     2     0     0 -2.249469068E+01 -8.162173065E+01 -6.223120984E+02  6.403635420E+02  1.250000000E+02  0.00000E+00  9.000E+00
      21     1     1     2   512   502  3.181082046E+01 -3.614310200E+01  7.185194527E+02  7.201308604E+02  1.078959322E-05  0.00000E+00  9.000E+00
#rwgt            1           1   5.1478793070632814E-002          26       48007           0
</event>
<event>
      5   9999  3.70600E-02  1.45364E+01 -1.00000E+00  1.78674E-01
      21    -1     0     0   502   501  0.000000000E+00  0.000000000E+00  1.159014934E+02  1.159014934E+02  0.000000000E+00  0.00000E+00  9.000E+00
      21    -1     0     0   501   511  0.000000000E+00  0.000000000E+00 -8.038500525E+02  8.038500525E+02  0.000000000E+00  0.00000E+00  9.000E+00
      25     1     1     2     0     0  1.226043184E+02  9.639664361E+01 -2.067367906E+00  1.998834806E+02  1.250000000E+02  0.00000E+00  9.000E+00
      25     1     1     2     0     0 -1.174796940E+02 -1.099998223E+02 -6.483267089E+02  6.795983820E+02  1.250000000E+02  0.00000E+00  9.000E+00
      21     1     1     2   502   511 -5.124624427E+00  1.360317866E+01 -3.755448231E+01  4.026968322E+01  0.000000000E+00  0.00000E+00  9.000E+00
#rwgt            1           1   4.4528268142551578E-002          26       48217           0
</event>
<event>
      5   9999  3.70600E-02  1.76950E+01 -1.00000E+00  1.70876E-01
      21    -1     0     0   502   512  0.000000000E+00  0.000000000E+00  1.744823359E+02  1.744823359E+02  0.000000000E+00  0.00000E+00  9.000E+00
      21    -1     0     0   501   502  0.000000000E+00  0.000000000E+00 -1.930117106E+02  1.930117106E+02  0.000000000E+00  0.00000E+00  9.000E+00
      25     1     1     2     0     0 -9.313809617E+01 -6.538060360E+01 -7.099596542E+01  1.833432720E+02  1.250000000E+02  0.00000E+00  9.000E+00
      25     1     1     2     0     0  7.647984562E+01  5.941282905E+01  5.197302909E+01  1.664489315E+02  1.250000000E+02  0.00000E+00  9.000E+00
      21     1     1     2   501   512  1.665825055E+01  5.967774550E+00  4.935616207E-01  1.770184305E+01  4.151651775E-07  0.00000E+00  9.000E+00
#rwgt            1           1   3.8783038690259120E-002          26       48722           0
</event>
<event>
      5   9999  3.70600E-02  5.35906E+01 -1.00000E+00  1.37376E-01
      21    -1     0     0   502   501  0.000000000E+00  0.000000000E+00  3.556489287E+02  3.556489287E+02  0.000000000E+00  0.00000E+00  9.000E+00
       2    -1     0     0   501     0  0.000000000E+00  0.000000000E+00 -4.656355468E+02  4.656355468E+02  0.000000000E+00  0.00000E+00  9.000E+00
      25     1     1     2     0     0 -1.836068052E+02 -1.757214061E+02  6.853120941E+01  2.913949178E+02  1.250000000E+02  0.00000E+00  9.000E+00
      25     1     1     2     0     0  1.764484519E+02  2.288318115E+02  2.842651885E+01  3.161188402E+02  1.250000000E+02  0.00000E+00  9.000E+00
       2     1     1     2   502     0  7.158353330E+00 -5.311040547E+01 -2.069443463E+02  2.137707175E+02  2.697398305E-06  0.00000E+00  9.000E+00
#rwgt            1           1   2.9417162556278471E-002          26       49123           0
</event>
<event>
      5   9999 -3.70600E-02  9.27230E+01 -1.00000E+00  1.25320E-01
      21    -1     0     0   502   501  0.000000000E+00  0.000000000E+00  5.457081294E+01  5.457081294E+01  0.000000000E+00  0.00000E+00  9.000E+00
       2    -1     0     0   501     0  0.000000000E+00  0.000000000E+00 -2.618991069E+03  2.618991069E+03  0.000000000E+00  0.00000E+00  9.000E+00
      25     1     1     2     0     0  2.205365517E+02 -2.172416101E+01 -1.475474812E+03  1.497250557E+03  1.250000000E+02  0.00000E+00  9.000E+00
      25     1     1     2     0     0 -3.045326931E+02 -1.754678075E+01 -6.635309314E+02  7.409091359E+02  1.250000000E+02  0.00000E+00  9.000E+00
       2     1     1     2   502     0  8.399614139E+01  3.927094176E+01 -4.254145123E+02  4.354021887E+02  5.394796609E-06  0.00000E+00  9.000E+00
#rwgt            1           1 -0.92040051056102568               26       49665           0
</event>
<event>
      5   9999  3.70600E-02  5.18919E+01 -1.00000E+00  1.38159E-01
      21    -1     0     0   502   501  0.000000000E+00  0.000000000E+00  1.183603717E+02  1.183603717E+02  0.000000000E+00  0.00000E+00  9.000E+00
      21    -1     0     0   511   502  0.000000000E+00  0.000000000E+00 -6.120738985E+02  6.120738985E+02  0.000000000E+00  0.00000E+00  9.000E+00
      25     1     1     2     0     0 -4.769299565E+01 -1.172695638E+02  1.465481526E+01  1.785120053E+02  1.250000000E+02  0.00000E+00  9.000E+00
      25     1     1     2     0     0  5.208364938E+01  6.556370857E+01 -4.465310687E+02  4.711966699E+02  1.250000000E+02  0.00000E+00  9.000E+00
      21     1     1     2   511   501 -4.390653735E+00  5.170585522E+01 -6.183727345E+01  8.072559502E+01  6.743495762E-07  0.00000E+00  9.000E+00
#rwgt            1           1   5.3524588762800536E-002          26       49920           0
</event>
<event>
      5   9999  3.70600E-02  7.44175E+01 -1.00000E+00  1.29887E-01
      21    -1     0     0   502   512  0.000000000E+00  0.000000000E+00  5.314042069E+02  5.314042069E+02  0.000000000E+00  0.00000E+00  9.000E+00
      21    -1     0     0   501   502  0.000000000E+00  0.000000000E+00 -2.208789437E+02  2.208789437E+02  0.000000000E+00  0.00000E+00  9.000E+00
      25     1     1     2     0     0  2.584844294E+02  6.057313169E+01  2.026500366E+02  3.566165193E+02  1.250000000E+02  0.00000E+00  9.000E+00
      25     1     1     2     0     0 -2.113332968E+02 -2.999437625E+00 -2.142039829E+01  2.464844669E+02  1.250000000E+02  0.00000E+00  9.000E+00
      21     1     1     2   501   512 -4.715113262E+01 -5.757369407E+01  1.292956248E+02  1.491821643E+02  2.697398305E-06  0.00000E+00  9.000E+00
#rwgt            2          11   2.0823423266369554E-003          26       50583           0
</event>
<event>
      5   9999  3.70600E-02  3.21879E+01 -1.00000E+00  1.50944E-01
      21    -1     0     0   502   501  0.000000000E+00  0.000000000E+00  1.812689809E+02  1.812689809E+02  0.000000000E+00  0.00000E+00  9.000E+00
      21    -1     0     0   511   502  0.000000000E+00  0.000000000E+00 -6.141454238E+02  6.141454238E+02  0.000000000E+00  0.00000E+00  9.000E+00
      25     1     1     2     0     0 -1.207683563E+02  5.475352882E+01 -4.376665423E+01  1.874125524E+02  1.250000000E+02  0.00000E+00  9.000E+00
      25     1     1     2     0     0  1.523415510E+02 -6.101424903E+01  1.101529711E+01  2.065841802E+02  1.250000000E+02  0.00000E+00  9.000E+00
      21     1     1     2   511   501 -3.157319470E+01  6.260720210E+00 -4.001250857E+02  4.014176721E+02  5.394796609E-06  0.00000E+00  9.000E+00
#rwgt            1           1   2.7688435287260185E-002          26       50618           0
</event>
<event>
      5   9999  3.70600E-02  1.20924E+02 -1.00000E+00  1.20225E-01
      21    -1     0     0   502   501  0.000000000E+00  0.000000000E+00  2.807785815E+02  2.807785815E+02  0.000000000E+00  0.00000E+00  9.000E+00
      21    -1     0     0   512   502  0.000000000E+00  0.000000000E+00 -7.036061651E+02  7.036061651E+02  0.000000000E+00  0.00000E+00  9.000E+00
      25     1     1     2     0     0 -1.033675410E+02 -2.477999971E+02 -2.978423975E+02  4.200295000E+02  1.250000000E+02  0.00000E+00  9.000E+00
      25     1     1     2     0     0  1.229723849E+02  1.284755686E+02  1.498975434E+02  2.640500950E+02  1.250000000E+02  0.00000E+00  9.000E+00
      21     1     1     2   512   501 -1.960484394E+01  1.193244285E+02 -2.748827294E+02  3.003051516E+02  5.394796609E-06  0.00000E+00  9.000E+00
#rwgt            1           1   3.4154081852030969E-002          26       53027           0
</event>
<event>
      5   9999  3.70600E-02  3.01844E+01 -1.00000E+00  1.52853E-01
      21    -1     0     0   502   511  0.000000000E+00  0.000000000E+00  1.731398018E+02  1.731398018E+02  0.000000000E+00  0.00000E+00  9.000E+00
      21    -1     0     0   501   502  0.000000000E+00  0.000000000E+00 -4.428669772E+02  4.428669772E+02  0.000000000E+00  0.00000E+00  9.000E+00
      25     1     1     2     0     0  1.143988336E+02  1.317074264E+02 -6.334881585E+01  2.237677631E+02  1.250000000E+02  0.00000E+00  9.000E+00
      25     1     1     2     0     0 -1.018926573E+02 -1.591790618E+02 -2.511375460E+02  3.382530921E+02  1.250000000E+02  0.00000E+00  9.000E+00
      21     1     1     2   501   511 -1.250617637E+01  2.747163531E+01  4.475918651E+01  5.398592383E+01  8.259061849E-07  0.00000E+00  9.000E+00
#rwgt            1           1   2.9282358993128650E-002          26       53206           0
</event>
<event>
      5   9999  3.70600E-02  4.87140E+01 -1.00000E+00  1.39722E-01
      21    -1     0     0   502   501  0.000000000E+00  0.000000000E+00  9.682506041E+01  9.682506041E+01  0.000000000E+00  0.00000E+00  9.000E+00
      21    -1     0     0   512   502  0.000000000E+00  0.000000000E+00 -5.182170358E+02  5.182170358E+02  0.000000000E+00  0.00000E+00  9.000E+00
      25     1     1     2     0     0 -2.618416787E+01  9.841379250E+01 -2.282861865E+01  1.628405080E+02  1.250000000E+02  0.00000E+00  9.000E+00
      25     1     1     2     0     0  6.918290428E+01 -7.551924231E+01 -3.366024810E+02  3.733840655E+02  1.250000000E+02  0.00000E+00  9.000E+00
      21     1     1     2   512   501 -4.299873641E+01 -2.289455020E+01 -6.196087581E+01  7.881752275E+01  6.743495762E-07  0.00000E+00  9.000E+00
#rwgt            1           1   5.4073780059752719E-002          26       53423           0
</event>
<event>
      5   9999  3.70600E-02  6.32042E+00 -1.00000E+00  2.22013E-01
      21    -1     0     0   502   501  0.000000000E+00  0.000000000E+00  1.658362498E+02  1.658362498E+02  0.000000000E+00  0.00000E+00  9.000E+00
      21    -1     0     0   501   511  0.000000000E+00  0.000000000E+00 -2.543519292E+02  2.543519292E+02  0.000000000E+00  0.00000E+00  9.000E+00
      25     1     1     2     0     0 -1.121793551E+02 -9.474530774E+01  2.374868998E+01  1.942932869E+02  1.250000000E+02  0.00000E+00  9.000E+00
      25     1     1     2     0     0  1.114933216E+02  8.846223229E+01 -1.106422763E+02  2.193696438E+02  1.250000000E+02  0.00000E+00  9.000E+00
      21     1     1     2   502   511  6.860334532E-01  6.283075458E+00 -1.622093123E+00  6.525248288E+00  8.429369702E-08  0.00000E+00  9.000E+00
#rwgt            1           1  0.14613141606565105               26       53619           0
</event>
<event>
      5   9999  3.70600E-02  1.01241E+02 -1.00000E+00  1.23586E-01
      21    -1     0     0   502   501  0.000000000E+00  0.000000000E+00  2.287993926E+03  2.287993926E+03  0.000000000E+00  0.00000E+00  9.000E+00
      21    -1     0     0   501   512  0.000000000E+00  0.000000000E+00 -1.174401618E+02  1.174401618E+02  0.000000000E+00  0.00000E+00  9.000E+00
      25     1     1     2     0     0  3.245339935E+02 -2.435968212E+02  9.004703010E+02  9.955568729E+02  1.250000000E+02  0.00000E+00  9.000E+00
      25     1     1     2     0     0 -3.792794070E+02  1.584346628E+02  1.226653263E+03  1.299714445E+03  1.250000000E+02  0.00000E+00  9.000E+00
      21     1     1     2   502   512  5.474541353E+01  8.516215838E+01  4.343019965E+01  1.101627694E+02  1.430511475E-06  0.00000E+00  9.000E+00
#rwgt            1           1  0.17590392219235201               26       54171           0
</event>
<event>
      5   9999  3.70600E-02  7.24225E+01 -1.00000E+00  1.30475E-01
      21    -1     0     0   502   511  0.000000000E+00  0.000000000E+00  3.680308228E+02  3.680308228E+02  0.000000000E+00  0.00000E+00  9.000E+00
      21    -1     0     0   501   502  0.000000000E+00  0.000000000E+00 -4.145960005E+02  4.145960005E+02  0.000000000E+00  0.00000E+00  9.000E+00
      25     1     1     2     0     0  3.043019326E+02  1.969771662E+02 -4.098689137E+01  3.856223482E+02  1.250000000E+02  0.00000E+00  9.000E+00
      25     1     1     2     0     0 -2.666092948E+02 -1.351363427E+02 -1.267929350E+01  3.242346553E+02  1.250000000E+02  0.00000E+00  9.000E+00
      21     1     1     2   501   511 -3.769263774E+01 -6.184082342E+01  7.101007165E+00  7.276981987E+01  9.721223372E-07  0.00000E+00  9.000E+00
#rwgt            1           1   4.1215550225703244E-002          26       54458           0
</event>
<event>
      5   9999  3.70600E-02  7.05830E+01 -1.00000E+00  1.31037E-01
      21    -1     0     0   502   501  0.000000000E+00  0.000000000E+00  4.688929045E+02  4.688929045E+02  0.000000000E+00  0.00000E+00  9.000E+00
      21    -1     0     0   501   512  0.000000000E+00  0.000000000E+00 -2.431185418E+02  2.431185418E+02  0.000000000E+00  0.00000E+00  9.000E+00
      25     1     1     2     0     0 -1.245369785E+02  6.962965006E+01  3.384358148E+02  3.879710658E+02  1.250000000E+02  0.00000E+00  9.000E+00
      25     1     1     2     0     0  1.399554381E+02 -1.385080386E+02 -8.536234218E+01  2.483620963E+02  1.250000000E+02  0.00000E+00  9.000E+00
      21     1     1     2   502   512 -1.541845955E+01  6.887838851E+01 -2.729910986E+01  7.567828419E+01  1.390207266E-06  0.00000E+00  9.000E+00
#rwgt            1           1   3.9645057534723395E-002          26       54730           0
</event>
<event>
      5   9999  3.70600E-02  8.99457E+01 -1.00000E+00  1.25932E-01
      21    -1     0     0   502   511  0.000000000E+00  0.000000000E+00  3.627192599E+03  3.627192599E+03  0.000000000E+00  0.00000E+00  9.000E+00
      21    -1     0     0   501   502  0.000000000E+00  0.000000000E+00 -3.731331981E+01  3.731331981E+01  0.000000000E+00  0.00000E+00  9.000E+00
      25     1     1     2     0     0 -1.054684548E+02 -5.290080524E+01  2.241703184E+02  2.824879144E+02  1.250000000E+02  0.00000E+00  9.000E+00
      25     1     1     2     0     0  1.431265941E+02  1.345837077E+02  2.036569316E+03  2.049838427E+03  1.250000000E+02  0.00000E+00  9.000E+00
      21     1     1     2   501   511 -3.765813927E+01 -8.168290244E+01  1.329139645E+03  1.332179578E+03  1.525878906E-05  0.00000E+00  9.000E+00
#rwgt            1           1   9.6970146310764643E-002          26       55095           0
</event>
<event>
      5   9999  3.70600E-02  5.15009E+01 -1.00000E+00  1.38344E-01
      21    -1     0     0   502   501  0.000000000E+00  0.000000000E+00  3.923733434E+03  3.923733434E+03  0.000000000E+00  0.00000E+00  9.000E+00
      21    -1     0     0   512   502  0.000000000E+00  0.000000000E+00 -1.595624373E+01  1.595624373E+01  0.000000000E+00  0.00000E+00  9.000E+00
      25     1     1     2     0     0  1.827586687E+02  1.077510546E+01  1.321828394E+03  1.340288080E+03  1.250000000E+02  0.00000E+00  9.000E+00
      25     1     1     2     0     0 -1.476201466E+02 -4.842642591E+01  2.317115312E+03  2.325679512E+03  1.250000000E+02  0.00000E+00  9.000E+00
      21     1     1     2   512   501 -3.513852206E+01  3.765132045E+01  2.688334848E+02  2.737220858E+02  3.814697266E-06  0.00000E+00  9.000E+00
#rwgt            1           1   3.1588292080730082E-003          26       55728           0
</event>
<event>
      5   9999  3.70600E-02  2.22885E+02 -1.00000E+00  1.09960E-01
      21    -1     0     0   502   501  0.000000000E+00  0.000000000E+00  1.715155220E+02  1.715155220E+02  0.000000000E+00  0.00000E+00  9.000E+00
      21    -1     0     0   501   511  0.000000000E+00  0.000000000E+00 -1.182991127E+03  1.182991127E+03  0.000000000E+00  0.00000E+00  9.000E+00
      25     1     1     2     0     0 -2.125575255E+02 -7.914575359E+01 -2.995730610E+02  3.959971854E+02  1.250000000E+02  0.00000E+00  9.000E+00
      25     1     1     2     0     0  3.971866897E+02 -4.571263524E+01 -4.593380569E+02  6.216617746E+02  1.250000000E+02  0.00000E+00  9.000E+00
      21     1     1     2   502   511 -1.846291642E+02  1.248583888E+02 -2.525644874E+02  3.368476894E+02  5.394796609E-06  0.00000E+00  9.000E+00
#rwgt            1           1   3.4538481103678770E-002          26       56386           0
</event>
<event>
      5   9999  3.70600E-02  1.01717E+02 -1.00000E+00  1.23495E-01
      21    -1     0     0   502   501  0.000000000E+00  0.000000000E+00  7.535313640E+02  7.535313640E+02  0.000000000E+00  0.00000E+00  9.000E+00
      21    -1     0     0   512   502  0.000000000E+00  0.000000000E+00 -1.758274686E+02  1.758274686E+02  0.000000000E+00  0.00000E+00  9.000E+00
      25     1     1     2     0     0  1.414443475E+02  4.086730512E+00  3.813035396E+01  1.926191286E+02  1.250000000E+02  0.00000E+00  9.000E+00
      25     1     1     2     0     0 -4.767697648E+01  3.533438982E+01  6.017970142E+02  6.175000077E+02  1.250000000E+02  0.00000E+00  9.000E+00
      21     1     1     2   512   501 -9.376737104E+01 -3.942112033E+01 -6.222347281E+01  1.192396963E+02  2.697398305E-06  0.00000E+00  9.000E+00
#rwgt            2          11   1.8417251347230643E-003          26       56461           0
</event>
<event>
      5   9999  3.70600E-02  6.58013E+01 -1.00000E+00  1.32594E-01
      21    -1     0     0   502   501  0.000000000E+00  0.000000000E+00  2.937756208E+02  2.937756208E+02  0.000000000E+00  0.00000E+00  9.000E+00
      21    -1     0     0   511   502  0.000000000E+00  0.000000000E+00 -2.130311708E+02  2.130311708E+02  0.000000000E+00  0.00000E+00  9.000E+00
      25     1     1     2     0     0 -5.438089504E+01  1.108017359E+02  1.304263420E+02  2.187929092E+02  1.250000000E+02  0.00000E+00  9.000E+00
      25     1     1     2     0     0  3.752922656E+01 -1.744086011E+02 -3.563232989E+01  2.207293952E+02  1.250000000E+02  0.00000E+00  9.000E+00
      21     1     1     2   511   501  1.685166848E+01  6.360686515E+01 -1.404956202E+01  6.728448720E+01  1.143415337E-06  0.00000E+00  9.000E+00
#rwgt            1           1   4.0033132017238786E-002          26       56481           0
</event>
<event>
      5   9999  3.70600E-02  2.96559E+01 -1.00000E+00  1.53386E-01
      21    -1     0     0   502   512  0.000000000E+00  0.000000000E+00  1.739242078E+03  1.739242078E+03  0.000000000E+00  0.00000E+00  9.000E+00
      21    -1     0     0   501   502  0.000000000E+00  0.000000000E+00 -4.174457771E+01  4.174457771E+01  0.000000000E+00  0.00000E+00  9.000E+00
      25     1     1     2     0     0 -8.552159280E+01  2.089563172E+02  8.908097842E+02  9.274393548E+02  1.250000000E+02  0.00000E+00  9.000E+00
      25     1     1     2     0     0  5.928784660E+01 -1.951266332E+02  6.204027299E+02  6.649165354E+02  1.250000000E+02  0.00000E+00  9.000E+00
      21     1     1     2   501   512  2.623374619E+01 -1.382968404E+01  1.862849861E+02  1.886307654E+02  2.697398305E-06  0.00000E+00  9.000E+00
#rwgt            1           1   4.6503942885862549E-002          26       56948           0
</event>
<event>
      5   9999  3.70600E-02  5.80450E+01 -1.00000E+00  1.35475E-01
      21    -1     0     0   502   501  0.000000000E+00  0.000000000E+00  4.357784443E+02  4.357784443E+02  0.000000000E+00  0.00000E+00  9.000E+00
      21    -1     0     0   511   502  0.000000000E+00  0.000000000E+00 -2.677894880E+02  2.677894880E+02  0.000000000E+00  0.00000E+00  9.000E+00
      25     1     1     2     0     0 -4.965186278E+01 -1.675726617E+02  1.763356712E+02  2.779661371E+02  1.250000000E+02  0.00000E+00  9.000E+00
      25     1     1     2     0     0  1.097197407E+01  1.242934095E+02  1.656706067E+02  2.421590093E+02  1.250000000E+02  0.00000E+00  9.000E+00
      21     1     1     2   511   501  3.867988871E+01  4.327925219E+01 -1.740173217E+02  1.834427859E+02  0.000000000E+00  0.00000E+00  9.000E+00
#rwgt            1           1   1.5716364195225055E-002          26       57925           0
</event>
<event>
      5   9999  3.70600E-02  4.48711E+01 -1.00000E+00  1.41809E-01
      21    -1     0     0   502   501  0.000000000E+00  0.000000000E+00  6.286281232E+01  6.286281232E+01  0.000000000E+00  0.00000E+00  9.000E+00
      21    -1     0     0   501   512  0.000000000E+00  0.000000000E+00 -1.125981413E+03  1.125981413E+03  0.000000000E+00  0.00000E+00  9.000E+00
      25     1     1     2     0     0  1.330673593E+02  1.202402215E+02 -3.666628442E+02  4.268855518E+02  1.250000000E+02  0.00000E+00  9.000E+00
      25     1     1     2     0     0 -8.865936662E+01 -1.266703910E+02 -2.817869265E+02  3.448691682E+02  1.250000000E+02  0.00000E+00  9.000E+00
      21     1     1     2   502   512 -4.440799266E+01  6.430169485E+00 -4.146688295E+02  4.170895049E+02  7.629394531E-06  0.00000E+00  9.000E+00
#rwgt            1           1   3.5848291309444301E-002          26       58278           0
</event>
<event>
      5   9999  3.70600E-02  2.42393E+01 -1.00000E+00  1.59760E-01
      21    -1     0     0   502   501  0.000000000E+00  0.000000000E+00  1.362127812E+03  1.362127812E+03  0.000000000E+00  0.00000E+00  9.000E+00
      21    -1     0     0   501   511  0.000000000E+00  0.000000000E+00 -5.617079223E+01  5.617079223E+01  0.000000000E+00  0.00000E+00  9.000E+00
      25     1     1     2     0     0 -7.355302365E+01  8.398776631E+01  1.166555180E+03  1.178532978E+03  1.250000000E+02  0.00000E+00  9.000E+00
      25     1     1     2     0     0  5.680796782E+01 -1.015133741E+02  1.243272120E+02  2.112211305E+02  1.250000000E+02  0.00000E+00  9.000E+00
      21     1     1     2   502   511  1.674505583E+01  1.752560782E+01  1.507462734E+01  2.854449533E+01  4.768371582E-07  0.00000E+00  9.000E+00
#rwgt            1           1   1.5254868778097343E-002          26       58945           0
</event>
<event>
      5   9999  3.70600E-02  1.01225E+02 -1.00000E+00  1.23589E-01
       1    -1     0     0   502     0  0.000000000E+00  0.000000000E+00  5.675328538E+02  5.675328538E+02  0.000000000E+00  0.00000E+00  9.000E+00
      21    -1     0     0   501   502  0.000000000E+00  0.000000000E+00 -2.553419592E+03  2.553419592E+03  0.000000000E+00  0.00000E+00  9.000E+00
      25     1     1     2     0     0  4.206634928E+01  9.526419321E+01 -3.598375272E+02  3.949087113E+02  1.250000000E+02  0.00000E+00  9.000E+00
      25     1     1     2     0     0 -7.618695356E+00 -8.113388545E-02 -2.169567969E+03  2.173179289E+03  1.250000000E+02  0.00000E+00  9.000E+00
       1     1     1     2   501     0 -3.444765392E+01 -9.518305932E+01  5.435187575E+02  5.528644458E+02  1.321449896E-05  0.00000E+00  9.000E+00
#rwgt            1           1   5.4027085965512936E-002          26       59640           0
</event>
<event>
      5   9999  3.70600E-02  3.07541E+01 -1.00000E+00  1.52292E-01
      21    -1     0     0   502   501  0.000000000E+00  0.000000000E+00  5.825749636E+02  5.825749636E+02  0.000000000E+00  0.00000E+00  9.000E+00
      21    -1     0     0   511   502  0.000000000E+00  0.000000000E+00 -1.511033449E+02  1.511033449E+02  0.000000000E+00  0.00000E+00  9.000E+00
      25     1     1     2     0     0  2.377219704E+02  1.209702717E+00  1.000319154E+02  2.866087624E+02  1.250000000E+02  0.00000E+00  9.000E+00
      25     1     1     2     0     0 -2.309267107E+02  2.878428290E+01  3.182709229E+02  4.136146286E+02  1.250000000E+02  0.00000E+00  9.000E+00
      21     1     1     2   511   501 -6.795259668E+00 -2.999398562E+01  1.316878040E+01  3.345491749E+01  5.057621821E-07  0.00000E+00  9.000E+00
#rwgt            1           1   3.9156668238703535E-002          26       59955           0
</event>
<event>
      5   9999  3.70600E-02  3.39056E+01 -1.00000E+00  1.49435E-01
      21    -1     0     0   502   501  0.000000000E+00  0.000000000E+00  6.170424491E+02  6.170424491E+02  0.000000000E+00  0.00000E+00  9.000E+00
      21    -1     0     0   501   512  0.000000000E+00  0.000000000E+00 -1.404949085E+02  1.404949085E+02  0.000000000E+00  0.00000E+00  9.000E+00
      25     1     1     2     0     0  8.050300304E+01 -9.135901122E+00  3.240723565E+02  3.566680395E+02  1.250000000E+02  0.00000E+00  9.000E+00
      25     1     1     2     0     0 -1.141280536E+02  1.348875406E+01  2.474034462E+02  3.000676996E+02  1.250000000E+02  0.00000E+00  9.000E+00
      21     1     1     2   502   512  3.362505059E+01 -4.352852942E+00 -9.492826207E+01  1.008016185E+02  1.348699152E-06  0.00000E+00  9.000E+00
#rwgt            1           1   2.9954363694596160E-002          26       60243           0
</event>
<event>
      5   9999  3.70600E-02  8.20804E+01 -1.00000E+00  1.27810E-01
      21    -1     0     0   502   511  0.000000000E+00  0.000000000E+00  2.663630705E+02  2.663630705E+02  0.000000000E+00  0.00000E+00  9.000E+00
      21    -1     0     0   501   502  0.000000000E+00  0.000000000E+00 -3.473814173E+02  3.473814173E+02  0.000000000E+00  0.00000E+00  9.000E+00
      25     1     1     2     0     0 -1.889621334E+02 -4.775977807E+01 -6.228916835E+01  2.397761972E+02  1.250000000E+02  0.00000E+00  9.000E+00
      25     1     1     2     0     0  2.107835385E+02 -3.136685053E+01 -9.230355300E+01  2.637395028E+02  1.250000000E+02  0.00000E+00  9.000E+00
      21     1     1     2   501   511 -2.182140511E+01  7.912662860E+01  7.357437456E+01  1.102287878E+02  1.348699152E-06  0.00000E+00  9.000E+00
#rwgt            1           1   5.0732897526866050E-002          26       60446           0
</event>
<event>
      5   9999  3.70600E-02  2.56681E+01 -1.00000E+00  1.57895E-01
      21    -1     0     0   502   512  0.000000000E+00  0.000000000E+00  4.348025536E+02  4.348025536E+02  0.000000000E+00  0.00000E+00  9.000E+00
      21    -1     0     0   501   502  0.000000000E+00  0.000000000E+00 -1.664475716E+02  1.664475716E+02  0.000000000E+00  0.00000E+00  9.000E+00
      25     1     1     2     0     0 -1.965582827E+02 -5.421956040E+01  2.697802961E+00  2.391802613E+02  1.250000000E+02  0.00000E+00  9.000E+00
      25     1     1     2     0     0  1.710301845E+02  5.154228384E+01  2.511731854E+02  3.325972040E+02  1.250000000E+02  0.00000E+00  9.000E+00
      21     1     1     2   501   512  2.552809822E+01  2.677276556E+00  1.448399366E+01  2.947265989E+01  2.384185791E-07  0.00000E+00  9.000E+00
#rwgt            1           1  0.14237137591520507               26       60642           0
</event>
<event>
      5   9999  3.70600E-02  2.29431E+01 -1.00000E+00  1.61592E-01
      21    -1     0     0   511   501  0.000000000E+00  0.000000000E+00  3.364183838E+02  3.364183838E+02  0.000000000E+00  0.00000E+00  9.000E+00
      21    -1     0     0   501   502  0.000000000E+00  0.000000000E+00 -1.059654804E+02  1.059654804E+02  0.000000000E+00  0.00000E+00  9.000E+00
      25     1     1     2     0     0  5.037878894E+01  1.845076928E+01 -2.378432707E+01  1.380910840E+02  1.250000000E+02  0.00000E+00  9.000E+00
      25     1     1     2     0     0 -7.105218363E+01 -8.501111715E+00  2.135712568E+02  2.576011712E+02  1.250000000E+02  0.00000E+00  9.000E+00
      21     1     1     2   511   502  2.067339469E+01 -9.949657567E+00  4.066597374E+01  4.669160903E+01  4.768371582E-07  0.00000E+00  9.000E+00
#rwgt            1           1   4.0853276392641760E-002          26       61280           0
</event>
<event>
      5   9999  3.70600E-02  3.59233E+01 -1.00000E+00  1.47794E-01
      21    -1     0     0   502   512  0.000000000E+00  0.000000000E+00  7.774186535E+02  7.774186535E+02  0.000000000E+00  0.00000E+00  9.000E+00
      21    -1     0     0   501   502  0.000000000E+00  0.000000000E+00 -8.865258449E+01  8.865258449E+01  0.000000000E+00  0.00000E+00  9.000E+00
      25     1     1     2     0     0 -9.995453033E+01  1.507118097E+02  4.117449434E+02  4.667588844E+02  1.250000000E+02  0.00000E+00  9.000E+00
      25     1     1     2     0     0  8.790159164E+01 -1.845527817E+02  1.920998299E+02  3.071054602E+02  1.250000000E+02  0.00000E+00  9.000E+00
      21     1     1     2   501   512  1.205293870E+01  3.384097203E+01  8.492129571E+01  9.220689337E+01  1.348699152E-06  0.00000E+00  9.000E+00
#rwgt            1           1   3.7710100318594439E-002          26       62722           0
</event>
<event>
      5   9999  3.70600E-02  5.23821E+01 -1.00000E+00  1.37930E-01
      21    -1     0     0   502   501  0.000000000E+00  0.000000000E+00  4.250425576E+02  4.250425576E+02  0.000000000E+00  0.00000E+00  9.000E+00
      -3    -1     0     0     0   502  0.000000000E+00  0.000000000E+00 -1.450351430E+02  1.450351430E+02  0.000000000E+00  0.00000E+00  9.000E+00
      25     1     1     2     0     0  3.249783558E+01  1.573179395E+02  2.059180203E+02  2.895380364E+02  1.250000000E+02  0.00000E+00  9.000E+00
      25     1     1     2     0     0 -4.703277354E+01 -1.069927659E+02  1.215118206E+02  2.098800998E+02  1.250000000E+02  0.00000E+00  9.000E+00
      -3     1     1     2     0   501  1.453493796E+01 -5.032517360E+01 -4.742242638E+01  7.065956441E+01  6.743495762E-07  0.00000E+00  9.000E+00
#rwgt            1           1   3.8835986736390729E-002          26       63565           0
</event>
<event>
      5   9999  3.70600E-02  1.19602E+02 -1.00000E+00  1.20428E-01
      21    -1     0     0   502   511  0.000000000E+00  0.000000000E+00  3.271947688E+02  3.271947688E+02  0.000000000E+00  0.00000E+00  9.000E+00
      21    -1     0     0   501   502  0.000000000E+00  0.000000000E+00 -6.358408866E+02  6.358408866E+02  0.000000000E+00  0.00000E+00  9.000E+00
      25     1     1     2     0     0 -1.393322875E+02  2.105557085E+02 -2.788372389E+02  3.963866780E+02  1.250000000E+02  0.00000E+00  9.000E+00
      25     1     1     2     0     0  1.803790071E+02 -9.821796559E+01 -2.304662190E+02  3.330510968E+02  1.250000000E+02  0.00000E+00  9.000E+00
      21     1     1     2   501   511 -4.104671965E+01 -1.123377429E+02  2.006573402E+02  2.335978806E+02  2.697398305E-06  0.00000E+00  9.000E+00
#rwgt            1           1   3.8296169921302033E-002          26       64495           0
</event>
<event>
      5   9999  3.70600E-02  2.41997E+01 -1.00000E+00  1.59814E-01
      21    -1     0     0   512   501  0.000000000E+00  0.000000000E+00  2.976426954E+02  2.976426954E+02  0.000000000E+00  0.00000E+00  9.000E+00
      21    -1     0     0   501   502  0.000000000E+00  0.000000000E+00 -3.438333495E+02  3.438333495E+02  0.000000000E+00  0.00000E+00  9.000E+00
      25     1     1     2     0     0 -1.331484775E+02 -1.128273805E+02 -1.227168697E+02  2.472710354E+02  1.250000000E+02  0.00000E+00  9.000E+00
      25     1     1     2     0     0  1.549261815E+02  1.022747020E+02 -7.859977082E+01  2.372027832E+02  1.250000000E+02  0.00000E+00  9.000E+00
      21     1     1     2   512   502 -2.177770400E+01  1.055267846E+01  1.551259864E+02  1.570022263E+02  0.000000000E+00  0.00000E+00  9.000E+00
#rwgt            1           1   4.3191836515375219E-002          26       64721           0
</event>
<event>
      5   9999  3.70600E-02  2.91201E+01 -1.00000E+00  1.53941E-01
      21    -1     0     0   502   501  0.000000000E+00  0.000000000E+00  3.804698924E+02  3.804698924E+02  0.000000000E+00  0.00000E+00  9.000E+00
      21    -1     0     0   511   502  0.000000000E+00  0.000000000E+00 -1.681455139E+02  1.681455139E+02  0.000000000E+00  0.00000E+00  9.000E+00
      25     1     1     2     0     0 -1.613961760E+02 -3.354738101E+00  1.998006184E+02  2.856663561E+02  1.250000000E+02  0.00000E+00  9.000E+00
      25     1     1     2     0     0  1.896676849E+02  1.033347222E+01  2.941699394E+01  2.292836036E+02  1.250000000E+02  0.00000E+00  9.000E+00
      21     1     1     2   511   501 -2.827150883E+01 -6.978734115E+00 -1.689323394E+01  3.366544659E+01  4.129530925E-07  0.00000E+00  9.000E+00
#rwgt            1           1   3.6830932043743957E-002          26       65395           0
</event>
<event>
      5   9999  3.70600E-02  1.95844E+01 -1.00000E+00  1.67122E-01
      21    -1     0     0   502   501  0.000000000E+00  0.000000000E+00  1.904722232E+03  1.904722232E+03  0.000000000E+00  0.00000E+00  9.000E+00
      21    -1     0     0   501   512  0.000000000E+00  0.000000000E+00 -1.930389184E+01  1.930389184E+01  0.000000000E+00  0.00000E+00  9.000E+00
      25     1     1     2     0     0 -3.114249186E+01  1.160209162E+02  9.808769749E+02  9.960799906E+02  1.250000000E+02  0.00000E+00  9.000E+00
      25     1     1     2     0     0  4.913300190E+01 -1.237597064E+02  8.616816831E+02  8.808239550E+02  1.250000000E+02  0.00000E+00  9.000E+00
      21     1     1     2   502   512 -1.799051004E+01  7.738790234E+00  4.285968268E+01  4.712217870E+01  1.066240300E-06  0.00000E+00  9.000E+00
#rwgt            1           1  0.12738051174640225               26       66056           0
</event>
<event>
      5   9999 -3.70600E-02  1.76153E+02 -1.00000E+00  1.13691E-01
       2    -1     0     0   502     0  0.000000000E+00  0.000000000E+00  1.187603547E+03  1.187603547E+03  0.000000000E+00  0.00000E+00  9.000E+00
      21    -1     0     0   501   502  0.000000000E+00  0.000000000E+00 -2.191197807E+03  2.191197807E+03  0.000000000E+00  0.00000E+00  9.000E+00
      25     1     1     2     0     0 -2.074869722E+01  3.018954183E+02 -1.195056305E+03  1.239094800E+03  1.250000000E+02  0.00000E+00  9.000E+00
      25     1     1     2     0     0  1.308559247E+02 -1.643952859E+02 -9.519299728E+02  9.828248858E+02  1.250000000E+02  0.00000E+00  9.000E+00
       2     1     1     2   501     0 -1.101072275E+02 -1.375001323E+02  1.143392018E+03  1.156881668E+03  0.000000000E+00  0.00000E+00  9.000E+00
#rwgt            1           1 -0.44747065079755816               26       66757           0
</event>
<event>
      5   9999 -3.70600E-02  1.01306E+01 -1.00000E+00  1.95104E-01
      21    -1     0     0   502   511  0.000000000E+00  0.000000000E+00  1.506857335E+02  1.506857335E+02  0.000000000E+00  0.00000E+00  9.000E+00
      21    -1     0     0   501   502  0.000000000E+00  0.000000000E+00 -8.307302470E+02  8.307302470E+02  0.000000000E+00  0.00000E+00  9.000E+00
      25     1     1     2     0     0  3.068633854E+01  1.799874189E+02 -5.593041051E+02  6.014841680E+02  1.250000000E+02  0.00000E+00  9.000E+00
      25     1     1     2     0     0 -4.075817267E+01 -1.788979261E+02 -2.007292078E+02  2.993040452E+02  1.250000000E+02  0.00000E+00  9.000E+00
      21     1     1     2   501   511  1.007183414E+01 -1.089492848E+00  7.998879940E+01  8.062776735E+01  9.536743164E-07  0.00000E+00  9.000E+00
#rwgt            1           1 -0.13772110009284680               26       66844           0
</event>
<event>
      5   9999  3.70600E-02  2.54671E+02 -1.00000E+00  1.07955E-01
      21    -1     0     0   502   501  0.000000000E+00  0.000000000E+00  2.669502708E+02  2.669502708E+02  0.000000000E+00  0.00000E+00  9.000E+00
      21    -1     0     0   512   502  0.000000000E+00  0.000000000E+00 -1.322843916E+03  1.322843916E+03  0.000000000E+00  0.00000E+00  9.000E+00
      25     1     1     2     0     0  2.509715072E+02 -1.911659875E+02  6.813212308E+01  3.461186479E+02  1.250000000E+02  0.00000E+00  9.000E+00
      25     1     1     2     0     0 -1.751479273E+01  8.940552056E+01 -9.044029478E+01  1.791774595E+02  1.250000000E+02  0.00000E+00  9.000E+00
      21     1     1     2   512   501 -2.334567144E+02  1.017604670E+02 -1.033585474E+03  1.064498080E+03  0.000000000E+00  0.00000E+00  9.000E+00
#rwgt            1           1   2.2169804808275417E-002          26       67847           0
</event>
<event>
      5   9999  3.70600E-02  4.01985E+01 -1.00000E+00  1.44705E-01
      21    -1     0     0   502   501  0.000000000E+00  0.000000000E+00  2.600981593E+02  2.600981593E+02  0.000000000E+00  0.00000E+00  9.000E+00
      21    -1     0     0   501   511  0.000000000E+00  0.000000000E+00 -2.701508813E+02  2.701508813E+02  0.000000000E+00  0.00000E+00  9.000E+00
      25     1     1     2     0     0 -3.108255733E+01 -6.681987599E+01  9.375060372E+01  1.727576247E+02  1.250000000E+02  0.00000E+00  9.000E+00
      25     1     1     2     0     0  6.844373918E+01  8.165421459E+01  7.040864569E+01  1.787018007E+02  1.250000000E+02  0.00000E+00  9.000E+00
      21     1     1     2   502   511 -3.736118185E+01 -1.483433860E+01 -1.742119714E+02  1.787896152E+02  1.907348633E-06  0.00000E+00  9.000E+00
#rwgt            1           1  0.17182712665005412               26       67939           0
</event>
<event>
      5   9999  3.70600E-02  1.09294E+02 -1.00000E+00  1.22115E-01
      21    -1     0     0   502   512  0.000000000E+00  0.000000000E+00  7.591761328E+01  7.591761328E+01  0.000000000E+00  0.00000E+00  9.000E+00
      21    -1     0     0   501   502  0.000000000E+00  0.000000000E+00 -1.381890716E+03  1.381890716E+03  0.000000000E+00  0.00000E+00  9.000E+00
      25     1     1     2     0     0  1.805073685E+02  9.551501821E+01 -8.904697462E+02  9.220994511E+02  1.250000000E+02  0.00000E+00  9.000E+00
      25     1     1     2     0     0 -1.182887454E+02 -5.659160470E+00 -3.857514421E+02  4.224374847E+02  1.250000000E+02  0.00000E+00  9.000E+00
      21     1     1     2   501   512 -6.221862312E+01 -8.985585774E+01 -2.975191475E+01  1.132713939E+02  2.078484985E-06  0.00000E+00  9.000E+00
#rwgt            1           1  0.29236355300342215               26       68338           0
</event>
<event>
      5   9999  3.70600E-02  4.65179E+01 -1.00000E+00  1.40886E-01
      21    -1     0     0   511   501  0.000000000E+00  0.000000000E+00  4.130980444E+01  4.130980444E+01  0.000000000E+00  0.00000E+00  9.000E+00
      21    -1     0     0   501   502  0.000000000E+00  0.000000000E+00 -1.860734203E+03  1.860734203E+03  0.000000000E+00  0.00000E+00  9.000E+00
      25     1     1     2     0     0  1.585574382E+02 -1.740468195E+02 -7.710904856E+02  8.158665906E+02  1.250000000E+02  0.00000E+00  9.000E+00
      25     1     1     2     0     0 -1.550350063E+02  1.276625238E+02 -9.093777303E+02  9.396416496E+02  1.250000000E+02  0.00000E+00  9.000E+00
      21     1     1     2   511   502 -3.522431823E+00  4.638429577E+01 -1.389561829E+02  1.465357676E+02  1.907348633E-06  0.00000E+00  9.000E+00
#rwgt            1           1   3.9768176121494844E-002          26       68783           0
</event>
<event>
      5   9999  3.70600E-02  4.63918E+01 -1.00000E+00  1.40955E-01
      21    -1     0     0   512   501  0.000000000E+00  0.000000000E+00  2.767674791E+03  2.767674791E+03  0.000000000E+00  0.00000E+00  9.000E+00
      21    -1     0     0   501   502  0.000000000E+00  0.000000000E+00 -7.839066656E+01  7.839066656E+01  0.000000000E+00  0.00000E+00  9.000E+00
      25     1     1     2     0     0 -2.082907865E+02  2.228233308E+02  8.129098169E+02  8.772016067E+02  1.250000000E+02  0.00000E+00  9.000E+00
      25     1     1     2     0     0  1.667550446E+02 -2.021599044E+02  4.135076109E+02  5.052617303E+02  1.250000000E+02  0.00000E+00  9.000E+00
      21     1     1     2   512   502  4.153574188E+01 -2.066342640E+01  1.462866697E+03  1.463602121E+03  2.157918644E-05  0.00000E+00  9.000E+00
#rwgt            1           1   4.0498498796205859E-002          26       69156           0
</event>
<event>
      5   9999  3.70600E-02  2.24352E+01 -1.00000E+00  1.62351E-01
      21    -1     0     0   511   501  0.000000000E+00  0.000000000E+00  1.190939389E+03  1.190939389E+03  0.000000000E+00  0.00000E+00  9.000E+00
      21    -1     0     0   501   502  0.000000000E+00  0.000000000E+00 -1.207195779E+02  1.207195779E+02  0.000000000E+00  0.00000E+00  9.000E+00
      25     1     1     2     0     0  5.374538778E+00  2.114859505E+02  3.930270600E+01  2.488471330E+02  1.250000000E+02  0.00000E+00  9.000E+00
      25     1     1     2     0     0 -4.979662868E+00 -1.890542370E+02  8.217873508E+02  8.524821121E+02  1.250000000E+02  0.00000E+00  9.000E+00
      21     1     1     2   511   502 -3.948759104E-01 -2.243171353E+01  2.091297539E+02  2.103297213E+02  0.000000000E+00  0.00000E+00  9.000E+00
#rwgt            1           1   2.1949655671118118E-002          26       69557           0
</event>
<event>
      5   9999  3.70600E-02  1.57235E+02 -1.00000E+00  1.15587E-01
      21    -1     0     0   502   501  0.000000000E+00  0.000000000E+00  8.686809973E+02  8.686809973E+02  0.000000000E+00  0.00000E+00  9.000E+00
      21    -1     0     0   512   502  0.000000000E+00  0.000000000E+00 -4.072591850E+02  4.072591850E+02  0.000000000E+00  0.00000E+00  9.000E+00
      25     1     1     2     0     0  4.528843984E+02 -3.829310982E+01  4.850512804E+02  6.763655707E+02  1.250000000E+02  0.00000E+00  9.000E+00
      25     1     1     2     0     0 -3.739847757E+02 -9.771306885E+01  7.618996301E+01  4.133308199E+02  1.250000000E+02  0.00000E+00  9.000E+00
      21     1     1     2   512   501 -7.889962276E+01  1.360061787E+02 -9.981943108E+01  1.862437917E+02  3.303624740E-06  0.00000E+00  9.000E+00
#rwgt            2          11   2.9881644072630659E-003          26       70011           0
</event>
<event>
      5   9999  3.70600E-02  1.02508E+02 -1.00000E+00  1.23344E-01
      21    -1     0     0   502   511  0.000000000E+00  0.000000000E+00  3.476161999E+02  3.476161999E+02  0.000000000E+00  0.00000E+00  9.000E+00
      21    -1     0     0   501   502  0.000000000E+00  0.000000000E+00 -2.687232142E+02  2.687232142E+02  0.000000000E+00  0.00000E+00  9.000E+00
      25     1     1     2     0     0 -7.748202039E+01 -4.348266492E+01 -1.848427373E+02  2.401791897E+02  1.250000000E+02  0.00000E+00  9.000E+00
      25     1     1     2     0     0 -2.214658459E+01  1.935559885E+01  2.380587046E+02  2.704848558E+02  1.250000000E+02  0.00000E+00  9.000E+00
      21     1     1     2   501   511  9.962860497E+01  2.412706607E+01  2.567701843E+01  1.056753686E+02  7.539457465E-07  0.00000E+00  9.000E+00
#rwgt            1           1   4.0902634295843322E-002          26       70241           0
</event>
<event>
      5   9999  3.70600E-02  3.20475E+01 -1.00000E+00  1.51072E-01
      21    -1     0     0   512   501  0.000000000E+00  0.000000000E+00  2.388195118E+02  2.388195118E+02  0.000000000E+00  0.00000E+00  9.000E+00
      21    -1     0     0   501   502  0.000000000E+00  0.000000000E+00 -6.489660232E+02  6.489660232E+02  0.000000000E+00  0.00000E+00  9.000E+00
      25     1     1     2     0     0 -1.674002721E+02  5.434866274E+01 -2.628311101E+02  3.401203032E+02  1.250000000E+02  0.00000E+00  9.000E+00
      25     1     1     2     0     0  1.549432453E+02 -8.387604528E+01 -3.122232925E+02  3.796722068E+02  1.250000000E+02  0.00000E+00  9.000E+00
      21     1     1     2   512   502  1.245702678E+01  2.952738255E+01  1.649078913E+02  1.679930250E+02  2.697398305E-06  0.00000E+00  9.000E+00
#rwgt            1           1   3.4105001465782166E-002          26       70478           0
</event>
<event>
      5   9999  3.70600E-02  1.85806E+01 -1.00000E+00  1.69048E-01
      21    -1     0     0   502   501  0.000000000E+00  0.000000000E+00  4.180523379E+02  4.180523379E+02  0.000000000E+00  0.00000E+00  9.000E+00
      21    -1     0     0   511   502  0.000000000E+00  0.000000000E+00 -6.931370708E+01  6.931370708E+01  0.000000000E+00  0.00000E+00  9.000E+00
      25     1     1     2     0     0 -2.206555111E+00  3.445789870E+01  1.357044750E+02  1.877043425E+02  1.250000000E+02  0.00000E+00  9.000E+00
      25     1     1     2     0     0  2.006196280E+01 -2.931768297E+01  2.364276800E+02  2.697870581E+02  1.250000000E+02  0.00000E+00  9.000E+00
      21     1     1     2   511   501 -1.785540769E+01 -5.140215730E+00 -2.339352414E+01  2.987464432E+01  6.743495762E-07  0.00000E+00  9.000E+00
#rwgt            1           1   8.2692009956674747E-003          26       71257           0
</event>
<event>
      5   9999  3.70600E-02  6.36356E+01 -1.00000E+00  1.33350E-01
      21    -1     0     0   502   512  0.000000000E+00  0.000000000E+00  1.444477178E+02  1.444477178E+02  0.000000000E+00  0.00000E+00  9.000E+00
      21    -1     0     0   501   502  0.000000000E+00  0.000000000E+00 -8.825730717E+02  8.825730717E+02  0.000000000E+00  0.00000E+00  9.000E+00
      25     1     1     2     0     0  4.974383870E+01  1.410270324E+02 -6.110921250E+02  6.414215920E+02  1.250000000E+02  0.00000E+00  9.000E+00
      25     1     1     2     0     0 -5.463123570E+01 -7.757939661E+01 -2.216448514E+02  2.715779351E+02  1.250000000E+02  0.00000E+00  9.000E+00
      21     1     1     2   501   512  4.887397002E+00 -6.344763584E+01  9.461162258E+01  1.140212624E+02  1.907348633E-06  0.00000E+00  9.000E+00
#rwgt            1           1   4.7109479693070368E-002          26       71558           0
</event>
<event>
      5   9999  3.70600E-02  4.28747E+01 -1.00000E+00  1.42993E-01
      21    -1     0     0   502   511  0.000000000E+00  0.000000000E+00  5.825255640E+02  5.825255640E+02  0.000000000E+00  0.00000E+00  9.000E+00
      21    -1     0     0   501   502  0.000000000E+00  0.000000000E+00 -1.076814696E+02  1.076814696E+02  0.000000000E+00  0.00000E+00  9.000E+00
      25     1     1     2     0     0 -1.750739465E+01 -1.502944884E+02  5.346532252E+01  2.034170170E+02  1.250000000E+02  0.00000E+00  9.000E+00
      25     1     1     2     0     0 -2.520906199E+01  1.539748672E+02  3.296498932E+02  3.855357424E+02  1.250000000E+02  0.00000E+00  9.000E+00
      21     1     1     2   501   511  4.271645663E+01 -3.680378789E+00  9.172887869E+01  1.012542742E+02  1.348699152E-06  0.00000E+00  9.000E+00
#rwgt            1           1   3.4523136408019538E-002          26       72180           0
</event>
<event>
      5   9999  3.70600E-02  3.18869E+01 -1.00000E+00  1.51220E-01
      21    -1     0     0   502   501  0.000000000E+00  0.000000000E+00  4.680533778E+02  4.680533778E+02  0.000000000E+00  0.00000E+00  9.000E+00
      21    -1     0     0   512   502  0.000000000E+00  0.000000000E+00 -1.463897269E+02  1.463897269E+02  0.000000000E+00  0.00000E+00  9.000E+00
      25     1     1     2     0     0  1.271951111E+02  7.303260411E+01  9.848405897E+01  2.164173455E+02  1.250000000E+02  0.00000E+00  9.000E+00
      25     1     1     2     0     0 -1.556943151E+02 -5.872976281E+01  2.702934824E+02  3.411355617E+02  1.250000000E+02  0.00000E+00  9.000E+00
      21     1     1     2   512   501  2.849920401E+01 -1.430284130E+01 -4.711389052E+01  5.689019756E+01  9.536743164E-07  0.00000E+00  9.000E+00
#rwgt            1           1   3.8476464375584871E-002          26       72806           0
</event>
<event>
      5   9999  3.70600E-02  2.28946E+01 -1.00000E+00  1.61664E-01
      21    -1     0     0   502   501  0.000000000E+00  0.000000000E+00  1.885677163E+02  1.885677163E+02  0.000000000E+00  0.00000E+00  9.000E+00
      21    -1     0     0   511   502  0.000000000E+00  0.000000000E+00 -1.867063450E+02  1.867063450E+02  0.000000000E+00  0.00000E+00  9.000E+00
      25     1     1     2     0     0 -4.277103756E+00 -9.183767970E+01 -5.511422418E+01  1.646664226E+02  1.250000000E+02  0.00000E+00  9.000E+00
      25     1     1     2     0     0 -2.810377102E+00  1.136076031E+02  7.155416231E+01  1.834654841E+02  1.250000000E+02  0.00000E+00  9.000E+00
      21     1     1     2   511   501  7.087480857E+00 -2.176992338E+01 -1.457856685E+01  2.714215467E+01  3.769728732E-07  0.00000E+00  9.000E+00
#rwgt            1           1   4.8436493015049729E-002          26       73137           0
</event>
<event>
      5   9999  3.70600E-02  1.95675E+01 -1.00000E+00  1.67153E-01
      21    -1     0     0   502   501  0.000000000E+00  0.000000000E+00  4.264267531E+02  4.264267531E+02  0.000000000E+00  0.00000E+00  9.000E+00
      21    -1     0     0   512   502  0.000000000E+00  0.000000000E+00 -4.274490583E+02  4.274490583E+02  0.000000000E+00  0.00000E+00  9.000E+00
      25     1     1     2     0     0  7.022143294E+01  2.888788344E+02  2.614825808E+02  4.151869105E+02  1.250000000E+02  0.00000E+00  9.000E+00
      25     1     1     2     0     0 -8.510729451E+01 -2.761785522E+02 -1.995841279E+02  3.727957462E+02  1.250000000E+02  0.00000E+00  9.000E+00
      21     1     1     2   512   501  1.488586157E+01 -1.270028221E+01 -6.292075805E+01  6.589315470E+01  0.000000000E+00  0.00000E+00  9.000E+00
#rwgt            1           1   3.1658982271550923E-002          26       73529           0
</event>
<event>
      5   9999  3.70600E-02  4.58641E+01 -1.00000E+00  1.41247E-01
      21    -1     0     0   502   511  0.000000000E+00  0.000000000E+00  4.638935669E+02  4.638935669E+02  0.000000000E+00  0.00000E+00  9.000E+00
      21    -1     0     0   501   502  0.000000000E+00  0.000000000E+00 -2.593504869E+02  2.593504869E+02  0.000000000E+00  0.00000E+00  9.000E+00
      25     1     1     2     0     0 -1.350751609E+02  5.773494785E+01 -1.646413465E+01  1.935838088E+02  1.250000000E+02  0.00000E+00  9.000E+00
      25     1     1     2     0     0  1.611813532E+02 -9.544409414E+01 -6.940379047E+01  2.356499307E+02  1.250000000E+02  0.00000E+00  9.000E+00
      21     1     1     2   501   511 -2.610619223E+01  3.770914629E+01  2.904110052E+02  2.940103143E+02  0.000000000E+00  0.00000E+00  9.000E+00
#rwgt            1           1  0.14920191878531117               26       74563           0
</event>
<event>
      5   9999  3.70600E-02  7.58032E+01 -1.00000E+00  1.29491E-01
      21    -1     0     0   502   501  0.000000000E+00  0.000000000E+00  1.713778519E+03  1.713778519E+03  0.000000000E+00  0.00000E+00  9.000E+00
      21    -1     0     0   501   512  0.000000000E+00  0.000000000E+00 -2.355528396E+02  2.355528396E+02  0.000000000E+00  0.00000E+00  9.000E+00
      25     1     1     2     0     0 -1.576905377E+00 -1.003514972E+02  1.463736721E+03  1.472488743E+03  1.250000000E+02  0.00000E+00  9.000E+00
      25     1     1     2     0     0 -7.075375606E+01  7.767095318E+01  2.106594629E+02  2.665357017E+02  1.250000000E+02  0.00000E+00  9.000E+00
      21     1     1     2   502   512  7.233066143E+01  2.268054401E+01 -1.961705040E+02  2.103069146E+02  5.394796609E-06  0.00000E+00  9.000E+00
#rwgt            1           1   4.6204281236731780E-002          26       74717           0
</event>
<event>
      5   9999  3.70600E-02  3.60370E+01 -1.00000E+00  1.47705E-01
      21    -1     0     0   502   511  0.000000000E+00  0.000000000E+00  1.900113411E+02  1.900113411E+02  0.000000000E+00  0.00000E+00  9.000E+00
      21    -1     0     0   501   502  0.000000000E+00  0.000000000E+00 -3.461237526E+02  3.461237526E+02  0.000000000E+00  0.00000E+00  9.000E+00
      25     1     1     2     0     0  4.266183473E+00 -1.383032851E+02 -1.865667635E+02  2.637767166E+02  1.250000000E+02  0.00000E+00  9.000E+00
      25     1     1     2     0     0 -3.484215556E+01  1.573760890E+02 -2.574820277E+01  2.055946963E+02  1.250000000E+02  0.00000E+00  9.000E+00
      21     1     1     2   501   511  3.057597208E+01 -1.907280392E+01  5.620255475E+01  6.676368084E+01  9.536743164E-07  0.00000E+00  9.000E+00
#rwgt            1           1   3.6370084080253925E-002          26       75436           0
</event>
<event>
      5   9999  3.70600E-02  1.39921E+01 -1.00000E+00  1.80274E-01
      21    -1     0     0   502   501  0.000000000E+00  0.000000000E+00  2.612139212E+01  2.612139212E+01  0.000000000E+00  0.00000E+00  9.000E+00
       2    -1     0     0   501     0  0.000000000E+00  0.000000000E+00 -1.301105214E+03  1.301105214E+03  0.000000000E+00  0.00000E+00  9.000E+00
      25     1     1     2     0     0 -4.670649979E+01 -3.130226145E+01 -2.079301968E+02  2.490407506E+02  1.250000000E+02  0.00000E+00  9.000E+00
      25     1     1     2     0     0  4.484630118E+01  4.517012607E+01 -9.503601045E+02  9.606564731E+02  1.250000000E+02  0.00000E+00  9.000E+00
       2     1     1     2   502     0  1.860198603E+00 -1.386786462E+01 -1.166935210E+02  1.175293829E+02  1.348699152E-06  0.00000E+00  9.000E+00
#rwgt            1           1   4.5405081140552736E-002          26       75835           0
</event>
<event>
      5   9999  3.70600E-02  1.68252E+02 -1.00000E+00  1.14449E-01
      21    -1     0     0   502   501  0.000000000E+00  0.000000000E+00  6.947713916E+02  6.947713916E+02  0.000000000E+00  0.00000E+00  9.000E+00
      21    -1     0     0   501   511  0.000000000E+00  0.000000000E+00 -2.113594434E+02  2.113594434E+02  0.000000000E+00  0.00000E+00  9.000E+00
      25     1     1     2     0     0 -2.422918846E+01  1.585269201E+02  1.536905642E+02  2.548796333E+02  1.250000000E+02  0.00000E+00  9.000E+00
      25     1     1     2     0     0 -3.030226974E+00 -3.245564293E+02  3.350168668E+02  4.829154782E+02  1.250000000E+02  0.00000E+00  9.000E+00
      21     1     1     2   502   511  2.725941543E+01  1.660295092E+02 -5.295482768E+00  1.683357235E+02  2.277490279E-06  0.00000E+00  9.000E+00
#rwgt            1           1   4.3537024635992773E-002          26       76370           0
</event>
<event>
      5   9999 -3.70600E-02  3.47532E+01 -1.00000E+00  1.48729E-01
      21    -1     0     0   502   501  0.000000000E+00  0.000000000E+00  4.751985190E+02  4.751985190E+02  0.000000000E+00  0.00000E+00  9.000E+00
      21    -1     0     0   501   512  0.000000000E+00  0.000000000E+00 -6.666556511E+02  6.666556511E+02  0.000000000E+00  0.00000E+00  9.000E+00
      25     1     1     2     0     0  5.285238075E+01  1.183206991E+02  2.509496135E+02  3.088589816E+02  1.250000000E+02  0.00000E+00  9.000E+00
      25     1     1     2     0     0 -8.737988700E+01 -1.143663089E+02  1.481419371E+02  2.414247933E+02  1.250000000E+02  0.00000E+00  9.000E+00
      21     1     1     2   502   512  3.452750625E+01 -3.954390135E+00 -5.905486827E+02  5.915703953E+02  0.000000000E+00  0.00000E+00  9.000E+00
#rwgt            1           1  -6.4616009819296230E-002          26       76587           0
</event>
<event>
      5   9999  3.70600E-02  5.15251E+01 -1.00000E+00  1.38333E-01
      21    -1     0     0   502   511  0.000000000E+00  0.000000000E+00  1.736662728E+02  1.736662728E+02  0.000000000E+00  0.00000E+00  9.000E+00
      21    -1     0     0   501   502  0.000000000E+00  0.000000000E+00 -3.895381405E+02  3.895381405E+02  0.000000000E+00  0.00000E+00  9.000E+00
      25     1     1     2     0     0  5.881223154E+01 -2.515976704E+01 -1.322658822E+01  1.410384171E+02  1.250000000E+02  0.00000E+00  9.000E+00
      25     1     1     2     0     0 -8.822017482E+01 -1.714874678E+01 -2.856345034E+02  3.244825855E+02  1.250000000E+02  0.00000E+00  9.000E+00
      21     1     1     2   501   511  2.940794329E+01  4.230851383E+01  8.298922388E+01  9.768341083E+01  2.132480600E-06  0.00000E+00  9.000E+00
#rwgt            1           1   4.6252003274613047E-002          26       76761           0
</event>
<event>
      5   9999 -3.70600E-02  1.27005E+01 -1.00000E+00  1.84470E-01
      21    -1     0     0   502   512  0.000000000E+00  0.000000000E+00  3.722380427E+02  3.722380427E+02  0.000000000E+00  0.00000E+00  9.000E+00
      21    -1     0     0   501   502  0.000000000E+00  0.000000000E+00 -2.032618831E+02  2.032618831E+02  0.000000000E+00  0.00000E+00  9.000E+00
      25     1     1     2     0     0 -5.494300197E+01 -1.596016403E+02  5.999905525E+01  2.184406182E+02  1.250000000E+02  0.00000E+00  9.000E+00
      25     1     1     2     0     0  4.256155940E+01  1.624306468E+02 -3.524497952E+01  2.122790850E+02  1.250000000E+02  0.00000E+00  9.000E+00
      21     1     1     2   501   512  1.238144257E+01 -2.829006512E+00  1.442220838E+02  1.447802226E+02  2.697398305E-06  0.00000E+00  9.000E+00
#rwgt            1           1 -0.11179736163109003               26       77608           0
</event>
<event>
      5   9999  3.70600E-02  3.27467E+01 -1.00000E+00  1.50441E-01
      21    -1     0     0   502   511  0.000000000E+00  0.000000000E+00  3.364874282E+02  3.364874282E+02  0.000000000E+00  0.00000E+00  9.000E+00
      21    -1     0     0   501   502  0.000000000E+00  0.000000000E+00 -3.628214906E+02  3.628214906E+02  0.000000000E+00  0.00000E+00  9.000E+00
      25     1     1     2     0     0  1.596066722E+02 -2.478626254E+02  7.105127948E+01  3.279991695E+02  1.250000000E+02  0.00000E+00  9.000E+00
      25     1     1     2     0     0 -1.794390623E+02  2.218045097E+02 -1.174679977E+02  3.328954011E+02  1.250000000E+02  0.00000E+00  9.000E+00
      21     1     1     2   501   511  1.983239010E+01  2.605811568E+01  2.008265572E+01  3.841434824E+01  9.233911863E-07  0.00000E+00  9.000E+00
#rwgt            1           1   3.0299702699248671E-002          26       78187           0
</event>
<event>
      5   9999  3.70600E-02  1.31273E+02 -1.00000E+00  1.18734E-01
      21    -1     0     0   502   501  0.000000000E+00  0.000000000E+00  7.316316446E+01  7.316316446E+01  0.000000000E+00  0.00000E+00  9.000E+00
       1    -1     0     0   501     0  0.000000000E+00  0.000000000E+00 -1.399431302E+03  1.399431302E+03  0.000000000E+00  0.00000E+00  9.000E+00
      25     1     1     2     0     0 -6.186063730E+01  1.668141518E+02 -7.417211204E+02  7.729352625E+02  1.250000000E+02  0.00000E+00  9.000E+00
      25     1     1     2     0     0  1.313596664E+01 -4.491847026E+01 -3.974606262E+01  1.392658324E+02  1.250000000E+02  0.00000E+00  9.000E+00
       1     1     1     2   502     0  4.872467066E+01 -1.218956815E+02 -5.448009541E+02  5.603933710E+02  0.000000000E+00  0.00000E+00  9.000E+00
#rwgt            1           1   4.7152365089289307E-002          26       78552           0
</event>
<event>
      5   9999  3.70600E-02  1.27125E+02 -1.00000E+00  1.19313E-01
      21    -1     0     0   502   511  0.000000000E+00  0.000000000E+00  2.306273270E+03  2.306273270E+03  0.000000000E+00  0.00000E+00  9.000E+00
      21    -1     0     0   501   502  0.000000000E+00  0.000000000E+00 -5.369662185E+01  5.369662185E+01  0.000000000E+00  0.00000E+00  9.000E+00
      25     1     1     2     0     0 -2.308134162E+01  6.953774066E+00  6.516196722E+02  6.639384765E+02  1.250000000E+02  0.00000E+00  9.000E+00
      25     1     1     2     0     0 -6.363233073E+01  8.600650705E+01  1.060949932E+02  1.957736968E+02  1.250000000E+02  0.00000E+00  9.000E+00
      21     1     1     2   501   511  8.671367235E+01 -9.296028111E+01  1.494861982E+03  1.500257718E+03  3.051757812E-05  0.00000E+00  9.000E+00
#rwgt            2          11   5.1373500045286970E-004          26       78628           0
</event>
<event>
      5   9999  3.70600E-02  7.57233E+01 -1.00000E+00  1.29513E-01
      21    -1     0     0   502   512  0.000000000E+00  0.000000000E+00  2.834126877E+02  2.834126877E+02  0.000000000E+00  0.00000E+00  9.000E+00
      21    -1     0     0   501   502  0.000000000E+00  0.000000000E+00 -6.429313368E+02  6.429313368E+02  0.000000000E+00  0.00000E+00  9.000E+00
      25     1     1     2     0     0 -1.256465056E+02 -1.306268694E+02 -4.868265842E+02  5.342991170E+02  1.250000000E+02  0.00000E+00  9.000E+00
      25     1     1     2     0     0  5.228275403E+01  1.493824804E+02 -4.251049300E+01  2.061085972E+02  1.250000000E+02  0.00000E+00  9.000E+00
      21     1     1     2   501   512  7.336375161E+01 -1.875561102E+01  1.698184280E+02  1.859363103E+02  1.907348633E-06  0.00000E+00  9.000E+00
#rwgt            2          11   1.9690604607144123E-003          26       78933           0
</event>
<event>
      5   9999  3.70600E-02  5.50170E+01 -1.00000E+00  1.36745E-01
      21    -1     0     0   502   501  0.000000000E+00  0.000000000E+00  4.909695100E+01  4.909695100E+01  0.000000000E+00  0.00000E+00  9.000E+00
      21    -1     0     0   501   511  0.000000000E+00  0.000000000E+00 -1.038761039E+03  1.038761039E+03  0.000000000E+00  0.00000E+00  9.000E+00
      25     1     1     2     0     0  1.305352503E+01 -9.936736499E+01 -1.780528807E+02  2.395247296E+02  1.250000000E+02  0.00000E+00  9.000E+00
      25     1     1     2     0     0 -6.005449671E+01  1.279641773E+02 -6.797513225E+02  7.054560466E+02  1.250000000E+02  0.00000E+00  9.000E+00
      21     1     1     2   502   511  4.700097168E+01 -2.859681228E+01 -1.318598844E+02  1.428772134E+02  1.907348633E-06  0.00000E+00  9.000E+00
#rwgt            1           1   5.0846479653460661E-002          26       79073           0
</event>
<event>
      5   9999  3.70600E-02  2.71308E+01 -1.00000E+00  1.56133E-01
      21    -1     0     0   512   501  0.000000000E+00  0.000000000E+00  1.716626394E+02  1.716626394E+02  0.000000000E+00  0.00000E+00  9.000E+00
      21    -1     0     0   501   502  0.000000000E+00  0.000000000E+00 -5.384862064E+02  5.384862064E+02  0.000000000E+00  0.00000E+00  9.000E+00
      25     1     1     2     0     0  5.760693301E+01 -2.428752565E+02 -2.563041118E+02  3.789772377E+02  1.250000000E+02  0.00000E+00  9.000E+00
      25     1     1     2     0     0 -7.809426632E+01  2.250891041E+02 -1.289658342E+02  2.983638812E+02  1.250000000E+02  0.00000E+00  9.000E+00
      21     1     1     2   512   502  2.048733330E+01  1.778615241E+01  1.844637904E+01  3.280772688E+01  6.307962682E-07  0.00000E+00  9.000E+00
#rwgt            1           1   7.6882862721539838E-002          26       79262           0
</event>
<event>
      5   9999 -3.70600E-02  9.55443E+01 -1.00000E+00  1.24723E-01
      21    -1     0     0   502   511  0.000000000E+00  0.000000000E+00  5.136363301E+01  5.136363301E+01  0.000000000E+00  0.00000E+00  9.000E+00
      21    -1     0     0   501   502  0.000000000E+00  0.000000000E+00 -1.726477024E+03  1.726477024E+03  0.000000000E+00  0.00000E+00  9.000E+00
      25     1     1     2     0     0  1.157871327E+02  6.674243342E+00 -4.085018189E+02  4.426623337E+02  1.250000000E+02  0.00000E+00  9.000E+00
      25     1     1     2     0     0 -1.666199556E+02 -8.757379787E+01 -1.193950159E+03  1.215143350E+03  1.250000000E+02  0.00000E+00  9.000E+00
      21     1     1     2   501   511  5.083282289E+01  8.089955453E+01 -7.266141333E+01  1.200349732E+02  0.000000000E+00  0.00000E+00  9.000E+00
#rwgt            1           1  -9.7966573143781099E-002          26       79803           0
</event>
<event>
      5   9999  3.70600E-02  2.14906E+02 -1.00000E+00  1.10522E-01
      21    -1     0     0   502   501  0.000000000E+00  0.000000000E+00  1.275189617E+02  1.275189617E+02  0.000000000E+00  0.00000E+00  9.000E+00
       1    -1     0     0   501     0  0.000000000E+00  0.000000000E+00 -1.461915905E+03  1.461915905E+03  0.000000000E+00  0.00000E+00  9.000E+00
      25     1     1     2     0     0 -2.426196507E+01 -2.040735289E+02 -4.967995744E+02  5.519687177E+02  1.250000000E+02  0.00000E+00  9.000E+00
      25     1     1     2     0     0 -1.534791579E+02  8.327379243E+01 -4.920738012E+01  2.203105596E+02  1.250000000E+02  0.00000E+00  9.000E+00
       1     1     1     2   502     0  1.777411229E+02  1.207997365E+02 -7.883899892E+02  8.171555900E+02  1.078959322E-05  0.00000E+00  9.000E+00
#rwgt            1           1   3.9165137086215489E-002          26       79897           0
</event>
<event>
      5   9999  3.70600E-02  1.35973E+01 -1.00000E+00  1.81493E-01
      21    -1     0     0   502   501  0.000000000E+00  0.000000000E+00  1.667741690E+02  1.667741690E+02  0.000000000E+00  0.00000E+00  9.000E+00
      21    -1     0     0   511   502  0.000000000E+00  0.000000000E+00 -2.264288528E+02  2.264288528E+02  0.000000000E+00  0.00000E+00  9.000E+00
      25     1     1     2     0     0 -8.511027442E+01 -5.354471792E+01  4.426933241E+01  1.664198589E+02  1.250000000E+02  0.00000E+00  9.000E+00
      25     1     1     2     0     0  9.787187271E+01  4.885122278E+01 -5.342222289E+01  1.744828912E+02  1.250000000E+02  0.00000E+00  9.000E+00
      21     1     1     2   511   501 -1.276159830E+01  4.693495143E+00 -5.050179336E+01  5.230027170E+01  6.743495762E-07  0.00000E+00  9.000E+00
#rwgt            1           1   4.5948452836333364E-002          26       80062           0
</event>
<event>
      5   9999  3.70600E-02  6.46951E+01 -1.00000E+00  1.32976E-01
       2    -1     0     0   502     0  0.000000000E+00  0.000000000E+00  8.818659538E+02  8.818659538E+02  0.000000000E+00  0.00000E+00  9.000E+00
      21    -1     0     0   501   502  0.000000000E+00  0.000000000E+00 -2.320340107E+02  2.320340107E+02  0.000000000E+00  0.00000E+00  9.000E+00
      25     1     1     2     0     0 -1.280762715E+02  6.908694097E+01 -2.311172060E+01  1.932244507E+02  1.250000000E+02  0.00000E+00  9.000E+00
      25     1     1     2     0     0  6.902858979E+01 -4.265159631E+01 -7.713900494E+01  1.678080182E+02  1.250000000E+02  0.00000E+00  9.000E+00
       2     1     1     2   501     0  5.904768169E+01 -2.643534466E+01  7.500826686E+02  7.528674956E+02  0.000000000E+00  0.00000E+00  9.000E+00
#rwgt            1           1   4.5934745855838517E-002          26       80500           0
</event>
<event>
      5   9999  3.70600E-02  1.15087E+01 -1.00000E+00  1.88953E-01
      21    -1     0     0   502   511  0.000000000E+00  0.000000000E+00  3.490854156E+02  3.490854156E+02  0.000000000E+00  0.00000E+00  9.000E+00
      21    -1     0     0   501   502  0.000000000E+00  0.000000000E+00 -4.550736812E+02  4.550736812E+02  0.000000000E+00  0.00000E+00  9.000E+00
      25     1     1     2     0     0 -6.662283852E+01  1.408326934E+02 -1.854663189E+02  2.725714688E+02  1.250000000E+02  0.00000E+00  9.000E+00
      25     1     1     2     0     0  6.100796881E+01 -1.508787556E+02 -1.793284613E+02  2.725253533E+02  1.250000000E+02  0.00000E+00  9.000E+00
      21     1     1     2   501   511  5.614869706E+00  1.004606220E+01  2.588065147E+02  2.590622747E+02  5.394796609E-06  0.00000E+00  9.000E+00
#rwgt            1           1   3.8131727530785163E-002          26       80598           0
</event>
<event>
      5   9999  3.70600E-02  5.76427E+01 -1.00000E+00  1.35638E-01
      21    -1     0     0   502   512  0.000000000E+00  0.000000000E+00  4.572438812E+02  4.572438812E+02  0.000000000E+00  0.00000E+00  9.000E+00
      21    -1     0     0   501   502  0.000000000E+00  0.000000000E+00 -9.577780726E+01  9.577780726E+01  0.000000000E+00  0.00000E+00  9.000E+00
      25     1     1     2     0     0 -1.793673383E+01 -9.643355679E+01  7.887561904E+01  1.773908695E+02  1.250000000E+02  0.00000E+00  9.000E+00
      25     1     1     2     0     0 -3.706756335E+00  4.300842119E+01  5.914055923E+01  1.448656967E+02  1.250000000E+02  0.00000E+00  9.000E+00
      21     1     1     2   501   512  2.164349017E+01  5.342513560E+01  2.234498957E+02  2.307651223E+02  3.814697266E-06  0.00000E+00  9.000E+00
#rwgt            1           1   4.6605753538289545E-002          26       81226           0
</event>
<event>
      5   9999  3.70600E-02  1.49533E+02 -1.00000E+00  1.16446E-01
      21    -1     0     0   502   501  0.000000000E+00  0.000000000E+00  1.676034089E+03  1.676034089E+03  0.000000000E+00  0.00000E+00  9.000E+00
      21    -1     0     0   501   511  0.000000000E+00  0.000000000E+00 -8.647445794E+01  8.647445794E+01  0.000000000E+00  0.00000E+00  9.000E+00
      25     1     1     2     0     0  1.580274159E+02 -1.353244238E+02  9.199297192E+02  9.514100336E+02  1.250000000E+02  0.00000E+00  9.000E+00
      25     1     1     2     0     0 -1.481713162E+02 -1.388305795E+01  6.257849906E+02  6.552704271E+02  1.250000000E+02  0.00000E+00  9.000E+00
      21     1     1     2   502   511 -9.856099716E+00  1.492074817E+02  4.384492123E+01  1.558280861E+02  1.348699152E-06  0.00000E+00  9.000E+00
#rwgt            1           1   2.7391034823329181E-002          26       81588           0
</event>
<event>
      5   9999  3.70600E-02  8.39745E+01 -1.00000E+00  1.27337E-01
       2    -1     0     0   502     0  0.000000000E+00  0.000000000E+00  2.391231306E+02  2.391231306E+02  0.000000000E+00  0.00000E+00  9.000E+00
      21    -1     0     0   501   502  0.000000000E+00  0.000000000E+00 -8.060481245E+02  8.060481245E+02  0.000000000E+00  0.00000E+00  9.000E+00
      25     1     1     2     0     0 -7.894159762E+01  1.419499392E+02 -4.941987963E+02  5.350130945E+02  1.250000000E+02  0.00000E+00  9.000E+00
      25     1     1     2     0     0 -3.558991638E-01 -1.695837847E+02 -2.422089376E+02  3.210123925E+02  1.250000000E+02  0.00000E+00  9.000E+00
       2     1     1     2   501     0  7.929749679E+01  2.763384549E+01  1.694827400E+02  1.891457680E+02  2.697398305E-06  0.00000E+00  9.000E+00
#rwgt            1           1   2.5041215922832576E-002          26       81777           0
</event>
<event>
      5   9999  3.70600E-02  3.36795E+01 -1.00000E+00  1.49628E-01
      21    -1     0     0   502   501  0.000000000E+00  0.000000000E+00  1.084627925E+03  1.084627925E+03  0.000000000E+00  0.00000E+00  9.000E+00
      21    -1     0     0   511   502  0.000000000E+00  0.000000000E+00 -2.991697876E+01  2.991697876E+01  0.000000000E+00  0.00000E+00  9.000E+00
      25     1     1     2     0     0 -4.607042549E+01  5.387121377E+01  2.836626831E+02  3.179844486E+02  1.250000000E+02  0.00000E+00  9.000E+00
      25     1     1     2     0     0  7.332692653E+01 -7.365479436E+01  6.879586154E+02  7.069044655E+02  1.250000000E+02  0.00000E+00  9.000E+00
      21     1     1     2   511   501 -2.725650105E+01  1.978358059E+01  8.308964758E+01  8.965598945E+01  9.536743164E-07  0.00000E+00  9.000E+00
#rwgt            1           1   3.8450751536874800E-002          26       81891           0
</event>
<event>
      5   9999  3.70600E-02  1.81423E+01 -1.00000E+00  1.69936E-01
      21    -1     0     0   512   501  0.000000000E+00  0.000000000E+00  9.862455077E+02  9.862455077E+02  0.000000000E+00  0.00000E+00  9.000E+00
      21    -1     0     0   501   502  0.000000000E+00  0.000000000E+00 -5.483198944E+01  5.483198944E+01  0.000000000E+00  0.00000E+00  9.000E+00
      25     1     1     2     0     0  6.017481325E+01  1.259205828E+02  6.536744264E+02  6.799943066E+02  1.250000000E+02  0.00000E+00  9.000E+00
      25     1     1     2     0     0 -7.392201656E+01 -1.140817007E+02  1.673684939E+02  2.492314420E+02  1.250000000E+02  0.00000E+00  9.000E+00
      21     1     1     2   512   502  1.374720331E+01 -1.183888214E+01  1.103705981E+02  1.118517485E+02  1.348699152E-06  0.00000E+00  9.000E+00
#rwgt            1           1   2.6719294065486589E-002          26       82104           0
</event>
<event>
      5   9999  3.70600E-02  6.20140E+01 -1.00000E+00  1.33940E-01
      21    -1     0     0   502   501  0.000000000E+00  0.000000000E+00  1.158324702E+03  1.158324702E+03  0.000000000E+00  0.00000E+00  9.000E+00
      21    -1     0     0   501   511  0.000000000E+00  0.000000000E+00 -5.547457263E+01  5.547457263E+01  0.000000000E+00  0.00000E+00  9.000E+00
      25     1     1     2     0     0  1.295148522E+02  4.047013618E+01  7.232965399E+02  7.464548302E+02  1.250000000E+02  0.00000E+00  9.000E+00
      25     1     1     2     0     0 -1.658025374E+02  9.818431893E+00  3.183939446E+02  3.802454299E+02  1.250000000E+02  0.00000E+00  9.000E+00
      21     1     1     2   502   511  3.628768518E+01 -5.028856808E+01  6.115964486E+01  8.709901455E+01  1.507891493E-06  0.00000E+00  9.000E+00
#rwgt            1           1   4.0022438913004457E-002          26       82445           0
</event>
<event>
      5   9999  3.70600E-02  6.49727E+01 -1.00000E+00  1.32879E-01
      21    -1     0     0   502   501  0.000000000E+00  0.000000000E+00  1.141622179E+02  1.141622179E+02  0.000000000E+00  0.00000E+00  9.000E+00
      21    -1     0     0   512   502  0.000000000E+00  0.000000000E+00 -9.093646103E+02  9.093646103E+02  0.000000000E+00  0.00000E+00  9.000E+00
      25     1     1     2     0     0  4.488640978E+01 -1.750199951E+02 -1.195395701E+02  2.501229643E+02  1.250000000E+02  0.00000E+00  9.000E+00
      25     1     1     2     0     0 -7.603424125E+01  1.180001384E+02 -1.414157079E+02  2.352204093E+02  1.250000000E+02  0.00000E+00  9.000E+00
      21     1     1     2   512   501  3.114783147E+01  5.701985671E+01 -5.342471144E+02  5.381834546E+02  7.629394531E-06  0.00000E+00  9.000E+00
#rwgt            1           1   4.0335309881783167E-002          26       82812           0
</event>
<event>
      5   9999  3.70600E-02  1.38581E+01 -1.00000E+00  1.80682E-01
      21    -1     0     0   502   501  0.000000000E+00  0.000000000E+00  3.103875291E+01  3.103875291E+01  0.000000000E+00  0.00000E+00  9.000E+00
      21    -1     0     0   511   502  0.000000000E+00  0.000000000E+00 -1.071189860E+03  1.071189860E+03  0.000000000E+00  0.00000E+00  9.000E+00
      25     1     1     2     0     0 -5.352224821E+01 -9.841859869E+01 -6.577160495E+02  6.787976527E+02  1.250000000E+02  0.00000E+00  9.000E+00
      25     1     1     2     0     0  6.475430505E+01  9.030143624E+01 -3.423859809E+02  3.810520035E+02  1.250000000E+02  0.00000E+00  9.000E+00
      21     1     1     2   511   501 -1.123205684E+01  8.117162454E+00 -4.004907642E+01  4.237895645E+01  6.743495762E-07  0.00000E+00  9.000E+00
#rwgt            1           1   4.1046418188078942E-002          26       82982           0
</event>
<event>
      5   9999  3.70600E-02  1.26017E+01 -1.00000E+00  1.84817E-01
      21    -1     0     0   512   501  0.000000000E+00  0.000000000E+00  1.983708098E+03  1.983708098E+03  0.000000000E+00  0.00000E+00  9.000E+00
      21    -1     0     0   501   502  0.000000000E+00  0.000000000E+00 -3.657362767E+01  3.657362767E+01  0.000000000E+00  0.00000E+00  9.000E+00
      25     1     1     2     0     0  2.367271016E+02  1.193812364E+01  9.497560020E+02  9.868351954E+02  1.250000000E+02  0.00000E+00  9.000E+00
      25     1     1     2     0     0 -2.243149065E+02 -9.760745775E+00  9.275323718E+02  9.624727269E+02  1.250000000E+02  0.00000E+00  9.000E+00
      21     1     1     2   512   502 -1.241219515E+01 -2.177377860E+00  6.984609613E+01  7.097380296E+01  0.000000000E+00  0.00000E+00  9.000E+00
#rwgt            1           1   2.6302340856128058E-002          26       83387           0
</event>
<event>
      5   9999  3.70600E-02  4.20723E+01 -1.00000E+00  1.43490E-01
      21    -1     0     0   502   511  0.000000000E+00  0.000000000E+00  1.291093941E+03  1.291093941E+03  0.000000000E+00  0.00000E+00  9.000E+00
      21    -1     0     0   501   502  0.000000000E+00  0.000000000E+00 -6.633569444E+01  6.633569444E+01  0.000000000E+00  0.00000E+00  9.000E+00
      25     1     1     2     0     0 -1.841581726E+02  3.867790025E+01  2.603062498E+02  3.446658616E+02  1.250000000E+02  0.00000E+00  9.000E+00
      25     1     1     2     0     0  1.448343750E+02 -2.372060635E+01  3.735148503E+02  4.203308301E+02  1.250000000E+02  0.00000E+00  9.000E+00
      21     1     1     2   501   511  3.932379764E+01 -1.495729390E+01  5.909371462E+02  5.924329434E+02  7.629394531E-06  0.00000E+00  9.000E+00
#rwgt            1           1   4.0730211049908947E-002          26       84374           0
</event>
<event>
      5   9999  3.70600E-02  1.52479E+02 -1.00000E+00  1.16111E-01
      21    -1     0     0   502   501  0.000000000E+00  0.000000000E+00  2.103472978E+02  2.103472978E+02  0.000000000E+00  0.00000E+00  9.000E+00
      21    -1     0     0   501   512  0.000000000E+00  0.000000000E+00 -9.422765945E+02  9.422765945E+02  0.000000000E+00  0.00000E+00  9.000E+00
      25     1     1     2     0     0  1.276815587E+02 -1.458686687E+02  5.073690501E+01  2.361768034E+02  1.250000000E+02  0.00000E+00  9.000E+00
      25     1     1     2     0     0  1.577930264E+01  1.975292271E+02 -1.818452080E+02  2.965796042E+02  1.250000000E+02  0.00000E+00  9.000E+00
      21     1     1     2   502   512 -1.434608614E+02 -5.166055835E+01 -6.008209937E+02  6.198674846E+02  7.629394531E-06  0.00000E+00  9.000E+00
#rwgt            1           1   4.0296232996154251E-002          26       84718           0
</event>
<event>
      5   9999  3.70600E-02  2.35570E+01 -1.00000E+00  1.60706E-01
      21    -1     0     0   502   501  0.000000000E+00  0.000000000E+00  2.433485583E+02  2.433485583E+02  0.000000000E+00  0.00000E+00  9.000E+00
      21    -1     0     0   511   502  0.000000000E+00  0.000000000E+00 -1.386587540E+02  1.386587540E+02  0.000000000E+00  0.00000E+00  9.000E+00
      25     1     1     2     0     0 -9.895848596E+00 -5.101875953E+01  1.445560437E+02  1.980461851E+02  1.250000000E+02  0.00000E+00  9.000E+00
      25     1     1     2     0     0  3.345166797E+01  5.125615744E+01 -1.796106210E+00  1.391920751E+02  1.250000000E+02  0.00000E+00  9.000E+00
      21     1     1     2   511   501 -2.355581937E+01 -2.373979146E-01 -3.807013328E+01  4.476905217E+01  9.536743164E-07  0.00000E+00  9.000E+00
#rwgt            1           1   3.0865212613596382E-002          26       84879           0
</event>
<event>
      5   9999  3.70600E-02  5.91107E+01 -1.00000E+00  1.35049E-01
      21    -1     0     0   502   512  0.000000000E+00  0.000000000E+00  1.696844007E+02  1.696844007E+02  0.000000000E+00  0.00000E+00  9.000E+00
      21    -1     0     0   501   502  0.000000000E+00  0.000000000E+00 -3.576346413E+02  3.576346413E+02  0.000000000E+00  0.00000E+00  9.000E+00
      25     1     1     2     0     0 -9.740430744E+00 -4.512331818E+01 -2.713254276E+02  3.022804616E+02  1.250000000E+02  0.00000E+00  9.000E+00
      25     1     1     2     0     0 -4.834539255E+01  5.608277487E+01  3.703962931E+01  1.499316136E+02  1.250000000E+02  0.00000E+00  9.000E+00
      21     1     1     2   501   512  5.808582329E+01 -1.095945669E+01  4.633555758E+01  7.510696676E+01  6.743495762E-07  0.00000E+00  9.000E+00
#rwgt            1           1   4.3489968578947470E-002          26       85424           0
</event>
<event>
      5   9999  3.70600E-02  1.87470E+02 -1.00000E+00  1.12679E-01
      21    -1     0     0   502   501  0.000000000E+00  0.000000000E+00  8.425507623E+01  8.425507623E+01  0.000000000E+00  0.00000E+00  9.000E+00
      21    -1     0     0   501   511  0.000000000E+00  0.000000000E+00 -1.002181545E+03  1.002181545E+03  0.000000000E+00  0.00000E+00  9.000E+00
      25     1     1     2     0     0  1.937027080E+02 -8.909619220E+01 -4.246810138E+02  4.913632404E+02  1.250000000E+02  0.00000E+00  9.000E+00
      25     1     1     2     0     0 -5.565373109E+01 -3.774065174E+01 -1.706848548E+02  2.219910229E+02  1.250000000E+02  0.00000E+00  9.000E+00
      21     1     1     2   502   511 -1.380489769E+02  1.268368439E+02 -3.225606002E+02  3.730823579E+02  3.814697266E-06  0.00000E+00  9.000E+00
#rwgt            1           1   4.2626098856198974E-002          26       85880           0
</event>
<event>
      5   9999  3.70600E-02  1.55662E+01 -1.00000E+00  1.75877E-01
      21    -1     0     0   512   501  0.000000000E+00  0.000000000E+00  5.675589150E+01  5.675589150E+01  0.000000000E+00  0.00000E+00  9.000E+00
      21    -1     0     0   501   502  0.000000000E+00  0.000000000E+00 -1.278069465E+03  1.278069465E+03  0.000000000E+00  0.00000E+00  9.000E+00
      25     1     1     2     0     0 -2.030482028E+02  2.754122945E+01 -3.196261863E+02  3.997161380E+02  1.250000000E+02  0.00000E+00  9.000E+00
      25     1     1     2     0     0  1.905415838E+02 -1.827340968E+01 -8.733662125E+02  9.027920878E+02  1.250000000E+02  0.00000E+00  9.000E+00
      21     1     1     2   512   502  1.250661900E+01 -9.267819773E+00 -2.832117471E+01  3.231713074E+01  8.259061849E-07  0.00000E+00  9.000E+00
#rwgt            1           1   3.6272678717437577E-002          26       86194           0
</event>
<event>
      5   9999  3.70600E-02  5.01947E+01 -1.00000E+00  1.38977E-01
      21    -1     0     0   502   501  0.000000000E+00  0.000000000E+00  1.687408221E+02  1.687408221E+02  0.000000000E+00  0.00000E+00  9.000E+00
      21    -1     0     0   501   511  0.000000000E+00  0.000000000E+00 -3.812799102E+02  3.812799102E+02  0.000000000E+00  0.00000E+00  9.000E+00
      25     1     1     2     0     0  4.829552835E+01  1.663481990E+02 -1.590436152E+01  2.142011440E+02  1.250000000E+02  0.00000E+00  9.000E+00
      25     1     1     2     0     0 -5.401885613E+00 -1.402782571E+02 -7.170098139E+01  2.011795231E+02  1.250000000E+02  0.00000E+00  9.000E+00
      21     1     1     2   502   511 -4.289364274E+01 -2.606994192E+01 -1.249337453E+02  1.346400652E+02  1.348699152E-06  0.00000E+00  9.000E+00
#rwgt            1           1   4.0775000882802497E-002          26       87013           0
</event>
<event>
      5   9999  3.70600E-02  4.73056E+01 -1.00000E+00  1.40460E-01
      21    -1     0     0   502   501  0.000000000E+00  0.000000000E+00  1.630764799E+02  1.630764799E+02  0.000000000E+00  0.00000E+00  9.000E+00
       1    -1     0     0   501     0  0.000000000E+00  0.000000000E+00 -1.518311770E+03  1.518311770E+03  0.000000000E+00  0.00000E+00  9.000E+00
      25     1     1     2     0     0  2.700835649E+02  3.194932572E+01 -2.844534952E+02  4.129221263E+02  1.250000000E+02  0.00000E+00  9.000E+00
      25     1     1     2     0     0 -2.228861112E+02 -2.875231328E+01 -6.992865216E+01  2.664956481E+02  1.250000000E+02  0.00000E+00  9.000E+00
       1     1     1     2   502     0 -4.719745367E+01 -3.197012439E+00 -1.000853142E+03  1.001970475E+03  1.868812365E-05  0.00000E+00  9.000E+00
#rwgt            1           1   4.0208084656709719E-002          26       87391           0
</event>
<event>
      5   9999  3.70600E-02  2.02363E+01 -1.00000E+00  1.65946E-01
      21    -1     0     0   502   501  0.000000000E+00  0.000000000E+00  6.625607100E+02  6.625607100E+02  0.000000000E+00  0.00000E+00  9.000E+00
      21    -1     0     0   511   502  0.000000000E+00  0.000000000E+00 -1.171198216E+02  1.171198216E+02  0.000000000E+00  0.00000E+00  9.000E+00
      25     1     1     2     0     0  5.937367997E+01  1.982334270E+02  8.695977327E+01  2.569216371E+02  1.250000000E+02  0.00000E+00  9.000E+00
      25     1     1     2     0     0 -5.733837162E+01 -1.780996917E+02  4.443548373E+02  4.980797230E+02  1.250000000E+02  0.00000E+00  9.000E+00
      21     1     1     2   511   501 -2.035308346E+00 -2.013373534E+01  1.412627785E+01  2.467917147E+01  3.769728732E-07  0.00000E+00  9.000E+00
#rwgt            1           1   4.5428675487903115E-002          26       87591           0
</event>
<event>
      5   9999  3.70600E-02  6.73899E+00 -1.00000E+00  2.17907E-01
      21    -1     0     0   502   501  0.000000000E+00  0.000000000E+00  3.561062100E+02  3.561062100E+02  0.000000000E+00  0.00000E+00  9.000E+00
      21    -1     0     0   512   502  0.000000000E+00  0.000000000E+00 -1.901066289E+02  1.901066289E+02  0.000000000E+00  0.00000E+00  9.000E+00
      25     1     1     2     0     0  1.657908799E+02 -6.051435128E+01  6.863065541E+01  2.269003513E+02  1.250000000E+02  0.00000E+00  9.000E+00
      25     1     1     2     0     0 -1.618642891E+02  5.503750748E+01  1.542673375E+02  2.620163864E+02  1.250000000E+02  0.00000E+00  9.000E+00
      21     1     1     2   512   501 -3.926590832E+00  5.476843794E+00 -5.689841183E+01  5.729610111E+01  1.507891493E-06  0.00000E+00  9.000E+00
#rwgt            1           1   3.6485923570015504E-002          26       87975           0
</event>
<event>
      5   9999  3.70600E-02  6.83491E+00 -1.00000E+00  2.17024E-01
      21    -1     0     0   502   501  0.000000000E+00  0.000000000E+00  2.601716794E+02  2.601716794E+02  0.000000000E+00  0.00000E+00  9.000E+00
      21    -1     0     0   501   511  0.000000000E+00  0.000000000E+00 -4.634017894E+02  4.634017894E+02  0.000000000E+00  0.00000E+00  9.000E+00
      25     1     1     2     0     0 -4.357379108E+00  5.643897844E+01 -5.970675472E+01  1.496470568E+02  1.250000000E+02  0.00000E+00  9.000E+00
      25     1     1     2     0     0  5.533779683E+00 -6.317188839E+01  1.923399172E+02  2.379936006E+02  1.250000000E+02  0.00000E+00  9.000E+00
      21     1     1     2   502   511 -1.176400575E+00  6.732909953E+00 -3.358632725E+02  3.359328114E+02  0.000000000E+00  0.00000E+00  9.000E+00
#rwgt            1           1   4.1421248201681152E-002          26       88672           0
</event>
<event>
      5   9999  3.70600E-02  6.76378E+01 -1.00000E+00  1.31978E-01
      21    -1     0     0   502   501  0.000000000E+00  0.000000000E+00  4.225972530E+02  4.225972530E+02  0.000000000E+00  0.00000E+00  9.000E+00
       3    -1     0     0   501     0  0.000000000E+00  0.000000000E+00 -5.763486712E+02  5.763486712E+02  0.000000000E+00  0.00000E+00  9.000E+00
      25     1     1     2     0     0 -1.023291236E+02  7.325422706E+01  3.375848224E+02  3.813475366E+02  1.250000000E+02  0.00000E+00  9.000E+00
      25     1     1     2     0     0  1.233701803E+02 -8.972470857E+00 -6.744827338E+01  1.883480188E+02  1.250000000E+02  0.00000E+00  9.000E+00
       3     1     1     2   502     0 -2.104105665E+01 -6.428175620E+01 -4.238879673E+02  4.292503688E+02  7.629394531E-06  0.00000E+00  9.000E+00
#rwgt            1           1   3.2315803167143241E-002          26       89535           0
</event>
<event>
      5   9999  3.70600E-02  2.97888E+02 -1.00000E+00  1.05691E-01
      21    -1     0     0   502   511  0.000000000E+00  0.000000000E+00  1.398993118E+03  1.398993118E+03  0.000000000E+00  0.00000E+00  9.000E+00
      21    -1     0     0   501   502  0.000000000E+00  0.000000000E+00 -5.219271313E+02  5.219271313E+02  0.000000000E+00  0.00000E+00  9.000E+00
      25     1     1     2     0     0 -2.448133055E+02 -1.759313940E+02 -2.060681307E+02  3.859721291E+02  1.250000000E+02  0.00000E+00  9.000E+00
      25     1     1     2     0     0  2.356352577E+02 -1.218146915E+02 -1.039056615E+02  3.111015593E+02  1.250000000E+02  0.00000E+00  9.000E+00
      21     1     1     2   501   511  9.178047782E+00  2.977460855E+02  1.187039778E+03  1.223846560E+03  1.525878906E-05  0.00000E+00  9.000E+00
#rwgt            1           1   3.6822646773632645E-002          26       90524           0
</event>
<event>
      5   9999  3.70600E-02  4.64621E+01 -1.00000E+00  1.40916E-01
      21    -1     0     0   502   512  0.000000000E+00  0.000000000E+00  1.644045650E+02  1.644045650E+02  0.000000000E+00  0.00000E+00  9.000E+00
      21    -1     0     0   501   502  0.000000000E+00  0.000000000E+00 -1.193582165E+03  1.193582165E+03  0.000000000E+00  0.00000E+00  9.000E+00
      25     1     1     2     0     0 -1.260676436E+02 -4.870746105E+01 -5.992303316E+02  6.268711653E+02  1.250000000E+02  0.00000E+00  9.000E+00
      25     1     1     2     0     0  1.311588870E+02  2.525170075E+00 -5.623365727E+02  5.908099958E+02  1.250000000E+02  0.00000E+00  9.000E+00
      21     1     1     2   501   512 -5.091243394E+00  4.618229098E+01  1.323893043E+02  1.403055689E+02  1.907348633E-06  0.00000E+00  9.000E+00
#rwgt            1           1   2.4016200418404722E-002          26       90918           0
</event>
<event>
      5   9999  3.70600E-02  2.82034E+01 -1.00000E+00  1.54924E-01
      21    -1     0     0   502   501  0.000000000E+00  0.000000000E+00  3.618333635E+01  3.618333635E+01  0.000000000E+00  0.00000E+00  9.000E+00
      21    -1     0     0   511   502  0.000000000E+00  0.000000000E+00 -1.321962039E+03  1.321962039E+03  0.000000000E+00  0.00000E+00  9.000E+00
      25     1     1     2     0     0  3.684891622E+01  1.355579614E+02 -4.018431106E+02  4.436628101E+02  1.250000000E+02  0.00000E+00  9.000E+00
      25     1     1     2     0     0 -2.637533455E+01 -1.617445024E+02 -7.846113100E+02  8.112316871E+02  1.250000000E+02  0.00000E+00  9.000E+00
      21     1     1     2   511   501 -1.047358167E+01  2.618654093E+01 -9.932428163E+01  1.032508778E+02  1.348699152E-06  0.00000E+00  9.000E+00
#rwgt            1           1   3.4799577240817441E-002          26       91597           0
</event>
<event>
      5   9999 -3.70600E-02  2.33739E+01 -1.00000E+00  1.60967E-01
      21    -1     0     0   512   501  0.000000000E+00  0.000000000E+00  4.497648470E+01  4.497648470E+01  0.000000000E+00  0.00000E+00  9.000E+00
      21    -1     0     0   501   502  0.000000000E+00  0.000000000E+00 -7.534493630E+02  7.534493630E+02  0.000000000E+00  0.00000E+00  9.000E+00
      25     1     1     2     0     0 -6.323280570E+01  5.619005364E+01 -4.279483694E+02  4.537846590E+02  1.250000000E+02  0.00000E+00  9.000E+00
      25     1     1     2     0     0  7.930784797E+01 -7.315860489E+01 -2.747680907E+02  3.205689004E+02  1.250000000E+02  0.00000E+00  9.000E+00
      21     1     1     2   512   502 -1.607504227E+01  1.696855125E+01 -5.756418180E+00  2.407228834E+01  3.039252468E-07  0.00000E+00  9.000E+00
#rwgt            1           1  -2.5413436683207412E-002          26       92210           0
</event>
<event>
      5   9999  3.70600E-02  4.93127E+01 -1.00000E+00  1.39417E-01
      21    -1     0     0   502   501  0.000000000E+00  0.000000000E+00  2.848849581E+01  2.848849581E+01  0.000000000E+00  0.00000E+00  9.000E+00
       1    -1     0     0   501     0  0.000000000E+00  0.000000000E+00 -2.041693261E+03  2.041693261E+03  0.000000000E+00  0.00000E+00  9.000E+00
      25     1     1     2     0     0  3.709834986E+01  3.225756031E+01 -8.605272166E+02  8.709471443E+02  1.250000000E+02  0.00000E+00  9.000E+00
      25     1     1     2     0     0 -1.556735805E+01  1.210632667E+01 -1.539261630E+02  1.992665789E+02  1.250000000E+02  0.00000E+00  9.000E+00
       1     1     1     2   502     0 -2.153099182E+01 -4.436388699E+01 -9.987513856E+02  9.999680336E+02  1.078959322E-05  0.00000E+00  9.000E+00
#rwgt            1           1   4.7855732783337566E-002          26       93299           0
</event>
<event>
      5   9999  3.70600E-02  1.56028E+02 -1.00000E+00  1.15718E-01
      21    -1     0     0   502   501  0.000000000E+00  0.000000000E+00  7.403120264E+02  7.403120264E+02  0.000000000E+00  0.00000E+00  9.000E+00
      21    -1     0     0   511   502  0.000000000E+00  0.000000000E+00 -5.560338835E+02  5.560338835E+02  0.000000000E+00  0.00000E+00  9.000E+00
      25     1     1     2     0     0  3.711173735E+02  7.580635811E+01  2.540819486E+02  4.729242492E+02  1.250000000E+02  0.00000E+00  9.000E+00
      25     1     1     2     0     0 -5.086109537E+02 -2.047640647E+00  1.582185327E+02  5.471264928E+02  1.250000000E+02  0.00000E+00  9.000E+00
      21     1     1     2   511   501  1.374935802E+02 -7.375871746E+01 -2.280223384E+02  2.762951679E+02  3.814697266E-06  0.00000E+00  9.000E+00
#rwgt            1           1  0.44976523633697812               26       93565           0
</event>
<event>
      5   9999  3.70600E-02  1.43810E+02 -1.00000E+00  1.17122E-01
      21    -1     0     0   502   501  0.000000000E+00  0.000000000E+00  5.969452727E+02  5.969452727E+02  0.000000000E+00  0.00000E+00  9.000E+00
       2    -1     0     0   501     0  0.000000000E+00  0.000000000E+00 -1.378478918E+03  1.378478918E+03  0.000000000E+00  0.00000E+00  9.000E+00
      25     1     1     2     0     0 -2.986787849E+02 -6.537443214E+01  3.869649230E+02  5.087727239E+02  1.250000000E+02  0.00000E+00  9.000E+00
      25     1     1     2     0     0  1.909614672E+02 -2.990602680E+01  5.341657385E+01  2.363027354E+02  1.250000000E+02  0.00000E+00  9.000E+00
       2     1     1     2   502     0  1.077173176E+02  9.528045894E+01 -1.221915143E+03  1.230348732E+03  2.157918644E-05  0.00000E+00  9.000E+00
#rwgt            1           1   4.6294900792321868E-002          26       93676           0
</event>
<event>
      5   9999  3.70600E-02  5.97143E+01 -1.00000E+00  1.34812E-01
      21    -1     0     0   502   501  0.000000000E+00  0.000000000E+00  6.932064661E+01  6.932064661E+01  0.000000000E+00  0.00000E+00  9.000E+00
       2    -1     0     0   501     0  0.000000000E+00  0.000000000E+00 -9.400364221E+02  9.400364221E+02  0.000000000E+00  0.00000E+00  9.000E+00
      25     1     1     2     0     0 -1.126582605E+02  3.486903550E+01 -4.775072800E+02  5.074898381E+02  1.250000000E+02  0.00000E+00  9.000E+00
      25     1     1     2     0     0  5.491337628E+01 -1.965964103E+01 -3.996380301E+01  1.436108837E+02  1.250000000E+02  0.00000E+00  9.000E+00
       2     1     1     2   502     0  5.774488420E+01 -1.520939447E+01 -3.532446925E+02  3.582563469E+02  5.394796609E-06  0.00000E+00  9.000E+00
#rwgt            1           1   3.8701408735469435E-002          26       93748           0
</event>
<event>
      5   9999  3.70600E-02  1.46129E+01 -1.00000E+00  1.78456E-01
      21    -1     0     0   502   501  0.000000000E+00  0.000000000E+00  1.375251818E+02  1.375251818E+02  0.000000000E+00  0.00000E+00  9.000E+00
      21    -1     0     0   501   511  0.000000000E+00  0.000000000E+00 -3.032568884E+02  3.032568884E+02  0.000000000E+00  0.00000E+00  9.000E+00
      25     1     1     2     0     0  9.747502168E+00  1.410203868E+02 -1.004244657E+02  2.137564890E+02  1.250000000E+02  0.00000E+00  9.000E+00
      25     1     1     2     0     0 -1.893266204E+01 -1.523856681E+02 -4.682350404E+01  2.034632106E+02  1.250000000E+02  0.00000E+00  9.000E+00
      21     1     1     2   502   511  9.185159873E+00  1.136528136E+01 -1.848373678E+01  2.356237058E+01  2.384185791E-07  0.00000E+00  9.000E+00
#rwgt            1           1   2.9875620404810597E-002          26       93871           0
</event>
<event>
      5   9999  3.70600E-02  4.63932E+01 -1.00000E+00  1.40954E-01
      21    -1     0     0   502   501  0.000000000E+00  0.000000000E+00  5.891137604E+02  5.891137604E+02  0.000000000E+00  0.00000E+00  9.000E+00
      21    -1     0     0   501   512  0.000000000E+00  0.000000000E+00 -1.345434426E+02  1.345434426E+02  0.000000000E+00  0.00000E+00  9.000E+00
      25     1     1     2     0     0 -1.498536211E+02 -5.166107804E+01  4.053751354E+02  4.528564620E+02  1.250000000E+02  0.00000E+00  9.000E+00
      25     1     1     2     0     0  1.787218811E+02  1.534366183E+01  3.037906436E+01  2.207370071E+02  1.250000000E+02  0.00000E+00  9.000E+00
      21     1     1     2   502   512 -2.886826007E+01  3.631741620E+01  1.881611802E+01  5.006373395E+01  1.039242493E-06  0.00000E+00  9.000E+00
#rwgt            1           1   3.7644301737977920E-002          26       94702           0
</event>
<event>
      5   9999  3.70600E-02  5.13875E+01 -1.00000E+00  1.38398E-01
      21    -1     0     0   502   511  0.000000000E+00  0.000000000E+00  7.822415099E+01  7.822415099E+01  0.000000000E+00  0.00000E+00  9.000E+00
      21    -1     0     0   501   502  0.000000000E+00  0.000000000E+00 -4.708538829E+02  4.708538829E+02  0.000000000E+00  0.00000E+00  9.000E+00
      25     1     1     2     0     0 -1.932348236E+01 -5.030620375E+01 -9.518877926E+01  1.661024226E+02  1.250000000E+02  0.00000E+00  9.000E+00
      25     1     1     2     0     0 -5.852191144E-01  9.768049772E+01 -2.906708364E+02  3.311440128E+02  1.250000000E+02  0.00000E+00  9.000E+00
      21     1     1     2   501   511  1.990870148E+01 -4.737429397E+01 -6.770116299E+00  5.183159846E+01  1.082772143E-06  0.00000E+00  9.000E+00
#rwgt            1           1   3.1316138472037493E-002          26       94900           0
</event>
<event>
      5   9999  3.70600E-02  1.40579E+02 -1.00000E+00  1.17520E-01
      21    -1     0     0   502   512  0.000000000E+00  0.000000000E+00  9.756148752E+01  9.756148752E+01  0.000000000E+00  0.00000E+00  9.000E+00
      21    -1     0     0   501   502  0.000000000E+00  0.000000000E+00 -1.174909470E+03  1.174909470E+03  0.000000000E+00  0.00000E+00  9.000E+00
      25     1     1     2     0     0  1.110306610E+01 -1.003625309E+01 -5.015471489E+01  1.355156813E+02  1.250000000E+02  0.00000E+00  9.000E+00
      25     1     1     2     0     0 -1.159438897E+02  1.036885280E+02 -9.611322772E+02  9.816285197E+02  1.250000000E+02  0.00000E+00  9.000E+00
      21     1     1     2   501   512  1.048408236E+02 -9.365227488E+01 -6.606099068E+01  1.553267568E+02  3.162979880E-06  0.00000E+00  9.000E+00
#rwgt            1           1   4.5648258328060208E-002          26       95020           0
</event>
<event>
      5   9999  3.70600E-02  7.52560E+00 -1.00000E+00  2.11198E-01
      21    -1     0     0   511   501  0.000000000E+00  0.000000000E+00  5.065378004E+02  5.065378004E+02  0.000000000E+00  0.00000E+00  9.000E+00
      21    -1     0     0   501   502  0.000000000E+00  0.000000000E+00 -4.644201241E+02  4.644201241E+02  0.000000000E+00  0.00000E+00  9.000E+00
      25     1     1     2     0     0 -1.681881713E+02 -6.753316828E+01 -2.814063219E+02  3.572989054E+02  1.250000000E+02  0.00000E+00  9.000E+00
      25     1     1     2     0     0  1.624838388E+02  7.244185751E+01 -6.354173221E+01  2.265201367E+02  1.250000000E+02  0.00000E+00  9.000E+00
      21     1     1     2   511   502  5.704332487E+00 -4.908689234E+00  3.870657304E+02  3.871388824E+02  7.629394531E-06  0.00000E+00  9.000E+00
#rwgt            1           1   3.1971137925364303E-002          26       95819           0
</event>
<event>
      5   9999  3.70600E-02  7.47371E+01 -1.00000E+00  1.29795E-01
      21    -1     0     0   512   501  0.000000000E+00  0.000000000E+00  1.632953272E+02  1.632953272E+02  0.000000000E+00  0.00000E+00  9.000E+00
      21    -1     0     0   501   502  0.000000000E+00  0.000000000E+00 -4.099254436E+02  4.099254436E+02  0.000000000E+00  0.00000E+00  9.000E+00
      25     1     1     2     0     0 -8.635391266E+01  1.181176976E+02  2.565321668E+01  1.941439576E+02  1.250000000E+02  0.00000E+00  9.000E+00
      25     1     1     2     0     0  1.024314704E+02 -4.513038389E+01 -2.500009299E+02  3.010887288E+02  1.250000000E+02  0.00000E+00  9.000E+00
      21     1     1     2   512   502 -1.607755770E+01 -7.298731376E+01 -2.228240316E+01  7.798808448E+01  1.877309769E-06  0.00000E+00  9.000E+00
#rwgt            1           1   2.3253180944953475E-002          26       96309           0
</event>
<event>
      5   9999  3.70600E-02  2.44215E+01 -1.00000E+00  1.59513E-01
      21    -1     0     0   502   501  0.000000000E+00  0.000000000E+00  2.896181504E+02  2.896181504E+02  0.000000000E+00  0.00000E+00  9.000E+00
      21    -1     0     0   501   511  0.000000000E+00  0.000000000E+00 -1.732028716E+02  1.732028716E+02  0.000000000E+00  0.00000E+00  9.000E+00
      25     1     1     2     0     0  2.128603685E+01 -1.511956248E+02  3.125191499E+01  1.997871230E+02  1.250000000E+02  0.00000E+00  9.000E+00
      25     1     1     2     0     0 -1.463640851E+01  1.746944241E+02  9.669830521E+01  2.360252709E+02  1.250000000E+02  0.00000E+00  9.000E+00
      21     1     1     2   502   511 -6.649628343E+00 -2.349879927E+01 -1.153494135E+01  2.700862818E+01  2.384185791E-07  0.00000E+00  9.000E+00
#rwgt            1           1   3.4300009078398232E-002          26       96537           0
</event>
<event>
      5   9999  3.70600E-02  2.08403E+02 -1.00000E+00  1.11000E-01
      21    -1     0     0   502   512  0.000000000E+00  0.000000000E+00  3.773711593E+02  3.773711593E+02  0.000000000E+00  0.00000E+00  9.000E+00
      21    -1     0     0   501   502  0.000000000E+00  0.000000000E+00 -3.292339964E+02  3.292339964E+02  0.000000000E+00  0.00000E+00  9.000E+00
      25     1     1     2     0     0  7.362691000E+01  3.499814066E+01  9.101468113E+01  1.747983521E+02  1.250000000E+02  0.00000E+00  9.000E+00
      25     1     1     2     0     0 -2.391439606E+02 -1.616312498E+02 -6.824747579E+01  3.218652090E+02  1.250000000E+02  0.00000E+00  9.000E+00
      21     1     1     2   501   512  1.655170506E+02  1.266331091E+02  2.536995758E+01  2.099415945E+02  2.236564522E-06  0.00000E+00  9.000E+00
#rwgt            1           1   9.7712848343786379E-002          26       96741           0
</event>
<event>
      5   9999  3.70600E-02  1.74118E+02 -1.00000E+00  1.13882E-01
       1    -1     0     0   502     0  0.000000000E+00  0.000000000E+00  4.985796716E+02  4.985796716E+02  0.000000000E+00  0.00000E+00  9.000E+00
      21    -1     0     0   501   502  0.000000000E+00  0.000000000E+00 -2.062468484E+02  2.062468484E+02  0.000000000E+00  0.00000E+00  9.000E+00
      25     1     1     2     0     0  8.863368155E+01 -1.328454350E+02 -5.004754148E+01  2.088865613E+02  1.250000000E+02  0.00000E+00  9.000E+00
      25     1     1     2     0     0 -1.233464113E+02 -3.777676374E+01  2.152212379E+02  2.803330203E+02  1.250000000E+02  0.00000E+00  9.000E+00
       1     1     1     2   501     0  3.471272973E+01  1.706221987E+02  1.271591268E+02  2.156069383E+02  3.568322551E-06  0.00000E+00  9.000E+00
#rwgt            1           1   4.4630720343653146E-002          26       96820           0
</event>
<event>
      5   9999  3.70600E-02  2.08390E+01 -1.00000E+00  1.64907E-01
      21    -1     0     0   502   501  0.000000000E+00  0.000000000E+00  6.413049922E+01  6.413049922E+01  0.000000000E+00  0.00000E+00  9.000E+00
      21    -1     0     0   511   502  0.000000000E+00  0.000000000E+00 -7.871009853E+02  7.871009853E+02  0.000000000E+00  0.00000E+00  9.000E+00
      25     1     1     2     0     0 -7.180697833E+01 -1.045379033E+02 -1.911439664E+02  2.612382653E+02  1.250000000E+02  0.00000E+00  9.000E+00
      25     1     1     2     0     0  8.412545607E+01  1.213461442E+02 -2.983184928E+02  3.555571716E+02  1.250000000E+02  0.00000E+00  9.000E+00
      21     1     1     2   511   501 -1.231847775E+01 -1.680824094E+01 -2.335080269E+02  2.344360477E+02  2.697398305E-06  0.00000E+00  9.000E+00
#rwgt            1           1   4.3467360106264098E-002          26       97016           0
</event>
<event>
      5   9999  3.70600E-02  5.48001E+01 -1.00000E+00  1.36839E-01
      21    -1     0     0   512   501  0.000000000E+00  0.000000000E+00  1.107945811E+02  1.107945811E+02  0.000000000E+00  0.00000E+00  9.000E+00
      21    -1     0     0   501   502  0.000000000E+00  0.000000000E+00 -1.487217697E+03  1.487217697E+03  0.000000000E+00  0.00000E+00  9.000E+00
      25     1     1     2     0     0 -1.052997579E+02  1.022964904E+02 -7.012112951E+02  7.272378506E+02  1.250000000E+02  0.00000E+00  9.000E+00
      25     1     1     2     0     0  1.055537583E+02 -1.570959896E+02 -7.468771021E+02  7.805582307E+02  1.250000000E+02  0.00000E+00  9.000E+00
      21     1     1     2   512   502 -2.540004757E-01  5.479949924E+01  7.166528129E+01  9.021619685E+01  4.156969970E-06  0.00000E+00  9.000E+00
#rwgt            1           1   4.7677779347975228E-002          26       97612           0
</event>
<event>
      5   9999  3.70600E-02  9.82857E+01 -1.00000E+00  1.24165E-01
      21    -1     0     0   502   501  0.000000000E+00  0.000000000E+00  2.560461305E+02  2.560461305E+02  0.000000000E+00  0.00000E+00  9.000E+00
      21    -1     0     0   511   502  0.000000000E+00  0.000000000E+00 -2.234884549E+02  2.234884549E+02  0.000000000E+00  0.00000E+00  9.000E+00
      25     1     1     2     0     0 -1.256556048E+02  6.049957159E+01 -6.637262400E-02  1.872819628E+02  1.250000000E+02  0.00000E+00  9.000E+00
      25     1     1     2     0     0  1.402771348E+02  3.669250212E+01  3.114156671E+01  1.939556945E+02  1.250000000E+02  0.00000E+00  9.000E+00
      21     1     1     2   511   501 -1.462153000E+01 -9.719207371E+01  1.482481492E+00  9.829692815E+01  1.868180157E-06  0.00000E+00  9.000E+00
#rwgt            1           1   3.7363770676792758E-002          26       97838           0
</event>
<event>
      5   9999  3.70600E-02  1.82475E+02 -1.00000E+00  1.13116E-01
      21    -1     0     0   512   501  0.000000000E+00  0.000000000E+00  3.500245235E+02  3.500245235E+02  0.000000000E+00  0.00000E+00  9.000E+00
      21    -1     0     0   501   502  0.000000000E+00  0.000000000E+00 -3.879696174E+02  3.879696174E+02  0.000000000E+00  0.00000E+00  9.000E+00
      25     1     1     2     0     0  3.469530609E-01 -1.193868826E+02 -2.131453074E+02  2.744253453E+02  1.250000000E+02  0.00000E+00  9.000E+00
      25     1     1     2     0     0  1.792676229E+02  8.720280298E+01  4.540708549E+01  2.396414257E+02  1.250000000E+02  0.00000E+00  9.000E+00
      21     1     1     2   512   502 -1.796145760E+02  3.218407959E+01  1.297931281E+02  2.239273699E+02  3.303624740E-06  0.00000E+00  9.000E+00
#rwgt            1           1   3.2974081395382993E-002          26       98302           0
</event>
<event>
      5   9999  3.70600E-02  1.86340E+01 -1.00000E+00  1.68941E-01
      21    -1     0     0   502   511  0.000000000E+00  0.000000000E+00  2.691254844E+02  2.691254844E+02  0.000000000E+00  0.00000E+00  9.000E+00
      21    -1     0     0   501   502  0.000000000E+00  0.000000000E+00 -2.142812320E+02  2.142812320E+02  0.000000000E+00  0.00000E+00  9.000E+00
      25     1     1     2     0     0 -5.012909045E+01  9.037145246E+01  1.891011714E+02  2.491268315E+02  1.250000000E+02  0.00000E+00  9.000E+00
      25     1     1     2     0     0  6.756746061E+01 -8.380411395E+01 -1.382344815E+02  2.152260745E+02  1.250000000E+02  0.00000E+00  9.000E+00
      21     1     1     2   501   511 -1.743837016E+01 -6.567338510E+00  3.977562411E+00  1.905381042E+01  4.636153336E-07  0.00000E+00  9.000E+00
#rwgt            1           1   3.3711313408745162E-002          26       98460           0
</event>
<event>
      5   9999  3.70600E-02  3.62351E+01 -1.00000E+00  1.47551E-01
      21    -1     0     0   502   512  0.000000000E+00  0.000000000E+00  4.658385168E+02  4.658385168E+02  0.000000000E+00  0.00000E+00  9.000E+00
      21    -1     0     0   501   502  0.000000000E+00  0.000000000E+00 -2.194852069E+02  2.194852069E+02  0.000000000E+00  0.00000E+00  9.000E+00
      25     1     1     2     0     0  4.011937885E+01 -1.278900968E+02 -1.049531860E+02  2.112004088E+02  1.250000000E+02  0.00000E+00  9.000E+00
      25     1     1     2     0     0 -5.732423524E+01  9.600008168E+01  5.631354533E+01  1.769132528E+02  1.250000000E+02  0.00000E+00  9.000E+00
      21     1     1     2   501   512  1.720485638E+01  3.189001514E+01  2.949929506E+02  2.972100622E+02  0.000000000E+00  0.00000E+00  9.000E+00
#rwgt            1           1   4.0798309560298909E-002          26       98751           0
</event>
<event>
      5   9999  3.70600E-02  5.76348E+01 -1.00000E+00  1.35641E-01
      21    -1     0     0   502   501  0.000000000E+00  0.000000000E+00  1.278893492E+02  1.278893492E+02  0.000000000E+00  0.00000E+00  9.000E+00
      21    -1     0     0   501   511  0.000000000E+00  0.000000000E+00 -5.964436640E+02  5.964436640E+02  0.000000000E+00  0.00000E+00  9.000E+00
      25     1     1     2     0     0  1.549651275E+02  1.397723466E+02 -1.351135968E+02  2.782645929E+02  1.250000000E+02  0.00000E+00  9.000E+00
      25     1     1     2     0     0 -1.021238596E+02 -1.167600185E+02 -1.380987821E+02  2.424014403E+02  1.250000000E+02  0.00000E+00  9.000E+00
      21     1     1     2   502   511 -5.284126788E+01 -2.301232815E+01 -1.953419359E+02  2.036669800E+02  3.814697266E-06  0.00000E+00  9.000E+00
#rwgt            1           1   1.6459608406100661E-002          26       99633           0
</event>
<event>
      5   9999  3.70600E-02  7.88742E+00 -1.00000E+00  2.08473E-01
      21    -1     0     0   502   501  0.000000000E+00  0.000000000E+00  8.787278604E+01  8.787278604E+01  0.000000000E+00  0.00000E+00  9.000E+00
      21    -1     0     0   512   502  0.000000000E+00  0.000000000E+00 -5.960040612E+02  5.960040612E+02  0.000000000E+00  0.00000E+00  9.000E+00
      25     1     1     2     0     0 -1.093358351E+02 -3.115955587E+01 -2.973258729E+01  1.715641848E+02  1.250000000E+02  0.00000E+00  9.000E+00
      25     1     1     2     0     0  1.172226868E+02  3.106458603E+01 -4.420994395E+02  4.751663721E+02  1.250000000E+02  0.00000E+00  9.000E+00
      21     1     1     2   512   501 -7.886851669E+00  9.496983911E-02 -3.629924842E+01  3.714629032E+01  4.768371582E-07  0.00000E+00  9.000E+00
#rwgt            1           1   4.1945874545655945E-002          26       99825           0
</event>
<event>
      5   9999  3.70600E-02  1.62760E+01 -1.00000E+00  1.74104E-01
      21    -1     0     0   502   501  0.000000000E+00  0.000000000E+00  4.220514049E+01  4.220514049E+01  0.000000000E+00  0.00000E+00  9.000E+00
      21    -1     0     0   511   502  0.000000000E+00  0.000000000E+00 -1.287988159E+03  1.287988159E+03  0.000000000E+00  0.00000E+00  9.000E+00
      25     1     1     2     0     0 -6.459267265E+01 -6.307164550E+01 -8.388103394E+02  8.528646032E+02  1.250000000E+02  0.00000E+00  9.000E+00
      25     1     1     2     0     0  4.962746115E+01  6.947079682E+01 -1.290133094E+02  1.988932138E+02  1.250000000E+02  0.00000E+00  9.000E+00
      21     1     1     2   511   501  1.496521150E+01 -6.399151316E+00 -2.779593697E+02  2.784354824E+02  3.814697266E-06  0.00000E+00  9.000E+00
#rwgt            1           1   3.8277252076736337E-002          26      100873           0
</event>
<event>
      5   9999  3.70600E-02  1.81056E+01 -1.00000E+00  1.70012E-01
       2    -1     0     0   502     0  0.000000000E+00  0.000000000E+00  8.080201027E+02  8.080201027E+02  0.000000000E+00  0.00000E+00  9.000E+00
      21    -1     0     0   501   502  0.000000000E+00  0.000000000E+00 -1.012755310E+02  1.012755310E+02  0.000000000E+00  0.00000E+00  9.000E+00
      25     1     1     2     0     0  9.434117050E+01 -6.785472218E+00  3.699507130E+01  1.610587917E+02  1.250000000E+02  0.00000E+00  9.000E+00
      25     1     1     2     0     0 -1.064613193E+02 -6.664918190E+00  1.336057433E+02  2.117874601E+02  1.250000000E+02  0.00000E+00  9.000E+00
       2     1     1     2   501     0  1.212014877E+01  1.345039041E+01  5.361437571E+02  5.364493819E+02  0.000000000E+00  0.00000E+00  9.000E+00
#rwgt            1           1   3.7946758157465468E-002          26      101145           0
</event>
<event>
      5   9999  3.70600E-02  8.38633E+01 -1.00000E+00  1.27364E-01
      21    -1     0     0   502   501  0.000000000E+00  0.000000000E+00  3.554218543E+02  3.554218543E+02  0.000000000E+00  0.00000E+00  9.000E+00
      21    -1     0     0   511   502  0.000000000E+00  0.000000000E+00 -3.051201124E+02  3.051201124E+02  0.000000000E+00  0.00000E+00  9.000E+00
      25     1     1     2     0     0 -1.938521608E+02  8.823068257E+01 -3.231247186E+01  2.490630631E+02  1.250000000E+02  0.00000E+00  9.000E+00
      25     1     1     2     0     0  2.221910728E+02 -1.671607785E+02  1.086963041E+02  3.236533411E+02  1.250000000E+02  0.00000E+00  9.000E+00
      21     1     1     2   511   501 -2.833891204E+01  7.893009592E+01 -2.608209035E+01  8.782556242E+01  8.259061849E-07  0.00000E+00  9.000E+00
#rwgt            1           1   3.6191720307291175E-002          26      101505           0
</event>
<event>
      5   9999  3.70600E-02  5.34038E+01 -1.00000E+00  1.37461E-01
      21    -1     0     0   502   501  0.000000000E+00  0.000000000E+00  2.314954323E+03  2.314954323E+03  0.000000000E+00  0.00000E+00  9.000E+00
      21    -1     0     0   512   502  0.000000000E+00  0.000000000E+00 -4.237705689E+01  4.237705689E+01  0.000000000E+00  0.00000E+00  9.000E+00
      25     1     1     2     0     0  1.983613132E+02 -2.832353316E+01  8.456812002E+02  8.780382255E+02  1.250000000E+02  0.00000E+00  9.000E+00
      25     1     1     2     0     0 -2.200027634E+02 -2.049875489E+01  1.393216194E+03  1.416155986E+03  1.250000000E+02  0.00000E+00  9.000E+00
      21     1     1     2   512   501  2.164145023E+01  4.882228805E+01  3.367987162E+01  6.313716759E+01  1.168007728E-06  0.00000E+00  9.000E+00
#rwgt            1           1   6.5044522512804223E-002          26      101977           0
</event>
<event>
      5   9999  3.70600E-02  7.32805E+01 -1.00000E+00  1.30219E-01
      21    -1     0     0   502   501  0.000000000E+00  0.000000000E+00  6.383801647E+02  6.383801647E+02  0.000000000E+00  0.00000E+00  9.000E+00
      21    -1     0     0   501   511  0.000000000E+00  0.000000000E+00 -2.239470416E+02  2.239470416E+02  0.000000000E+00  0.00000E+00  9.000E+00
      25     1     1     2     0     0 -5.507710423E+01 -1.922673321E+02 -4.971244203E+01  2.410322412E+02  1.250000000E+02  0.00000E+00  9.000E+00
      25     1     1     2     0     0  4.642005399E+01  2.650346772E+02  4.606579575E+02  5.479315243E+02  1.250000000E+02  0.00000E+00  9.000E+00
      21     1     1     2   502   511  8.657050239E+00 -7.276734513E+01  3.487607631E+00  7.336344078E+01  4.897021271E-07  0.00000E+00  9.000E+00
#rwgt            1           1   2.2428614557254062E-002          26      102686           0
</event>
<event>
      5   9999  3.70600E-02  7.02915E+01 -1.00000E+00  1.31127E-01
       1    -1     0     0   502     0  0.000000000E+00  0.000000000E+00  6.895052879E+02  6.895052879E+02  0.000000000E+00  0.00000E+00  9.000E+00
      21    -1     0     0   501   502  0.000000000E+00  0.000000000E+00 -9.444661847E+01  9.444661847E+01  0.000000000E+00  0.00000E+00  9.000E+00
      25     1     1     2     0     0 -4.071504142E+01 -3.891899032E+01  1.990863338E+00  1.371180730E+02  1.250000000E+02  0.00000E+00  9.000E+00
      25     1     1     2     0     0  9.563263539E+01  8.279319756E+01  3.339225723E+02  3.783247267E+02  1.250000000E+02  0.00000E+00  9.000E+00
       1     1     1     2   501     0 -5.491759397E+01 -4.387420724E+01  2.591452338E+02  2.685091067E+02  3.814697266E-06  0.00000E+00  9.000E+00
#rwgt            1           1   5.1095933940952201E-002          26      102923           0
</event>
<event>
      5   9999  3.70600E-02  3.65406E+01 -1.00000E+00  1.47317E-01
      21    -1     0     0   502   501  0.000000000E+00  0.000000000E+00  4.470752183E+02  4.470752183E+02  0.000000000E+00  0.00000E+00  9.000E+00
      21    -1     0     0   501   511  0.000000000E+00  0.000000000E+00 -3.158682911E+02  3.158682911E+02  0.000000000E+00  0.00000E+00  9.000E+00
      25     1     1     2     0     0 -2.211818979E+02 -2.591484218E+02  5.278911853E+01  3.667301835E+02  1.250000000E+02  0.00000E+00  9.000E+00
      25     1     1     2     0     0  2.093151552E+02  2.245883818E+02  1.086049355E+02  3.488162947E+02  1.250000000E+02  0.00000E+00  9.000E+00
      21     1     1     2   502   511  1.186674275E+01  3.456003999E+01 -3.018712677E+01  4.739703124E+01  4.768371582E-07  0.00000E+00  9.000E+00
#rwgt            1           1   4.8350223036074225E-002          26      103411           0
</event>
<event>
      5   9999 -3.70600E-02  2.60821E+01 -1.00000E+00  1.57382E-01
      21    -1     0     0   502   501  0.000000000E+00  0.000000000E+00  1.463264526E+02  1.463264526E+02  0.000000000E+00  0.00000E+00  9.000E+00
      21    -1     0     0   512   502  0.000000000E+00  0.000000000E+00 -3.802124788E+02  3.802124788E+02  0.000000000E+00  0.00000E+00  9.000E+00
      25     1     1     2     0     0  7.992745187E+01  1.902458357E+01  6.127068224E+01  1.616459985E+02  1.250000000E+02  0.00000E+00  9.000E+00
      25     1     1     2     0     0 -1.058522985E+02 -1.616453999E+01 -1.683873734E+02  2.354682759E+02  1.250000000E+02  0.00000E+00  9.000E+00
      21     1     1     2   512   501  2.592484659E+01 -2.860043580E+00 -1.267693350E+02  1.294246569E+02  1.348699152E-06  0.00000E+00  9.000E+00
#rwgt            1           1  -5.2136072350419616E-002          26      104056           0
</event>
<event>
      5   9999  3.70600E-02  9.30643E+01 -1.00000E+00  1.25247E-01
      21    -1     0     0   511   501  0.000000000E+00  0.000000000E+00  1.873728293E+02  1.873728293E+02  0.000000000E+00  0.00000E+00  9.000E+00
      21    -1     0     0   501   502  0.000000000E+00  0.000000000E+00 -3.567224763E+02  3.567224763E+02  0.000000000E+00  0.00000E+00  9.000E+00
      25     1     1     2     0     0 -5.823899581E+01 -3.629826436E+01 -1.450207297E+02  2.033847504E+02  1.250000000E+02  0.00000E+00  9.000E+00
      25     1     1     2     0     0  1.441163855E+02  4.370090116E-01 -1.048136735E+02  2.176709207E+02  1.250000000E+02  0.00000E+00  9.000E+00
      21     1     1     2   511   502 -8.587738967E+01  3.586125535E+01  8.048475629E+01  1.230396346E+02  0.000000000E+00  0.00000E+00  9.000E+00
#rwgt            1           1   4.1452324349671256E-002          26      104361           0
</event>
<event>
      5   9999  3.70600E-02  1.28136E+01 -1.00000E+00  1.84078E-01
      21    -1     0     0   502   501  0.000000000E+00  0.000000000E+00  3.781132837E+02  3.781132837E+02  0.000000000E+00  0.00000E+00  9.000E+00
      21    -1     0     0   501   512  0.000000000E+00  0.000000000E+00 -1.486268789E+02  1.486268789E+02  0.000000000E+00  0.00000E+00  9.000E+00
      25     1     1     2     0     0 -4.701604354E+01 -4.697569611E+01  3.160403503E+02  3.463000540E+02  1.250000000E+02  0.00000E+00  9.000E+00
      25     1     1     2     0     0  4.253777482E+01  5.898129278E+01 -8.441569613E+01  1.674492906E+02  1.250000000E+02  0.00000E+00  9.000E+00
      21     1     1     2   502   512  4.478268721E+00 -1.200559668E+01 -2.138249369E+00  1.299081801E+01  1.685873940E-07  0.00000E+00  9.000E+00
#rwgt            1           1   3.9226433013828180E-002          26      105610           0
</event>
<event>
      5   9999  3.70600E-02  3.81493E+01 -1.00000E+00  1.46125E-01
       2    -1     0     0   502     0  0.000000000E+00  0.000000000E+00  1.037662077E+03  1.037662077E+03  0.000000000E+00  0.00000E+00  9.000E+00
      21    -1     0     0   501   502  0.000000000E+00  0.000000000E+00 -5.887562258E+02  5.887562258E+02  0.000000000E+00  0.00000E+00  9.000E+00
      25     1     1     2     0     0  1.515686127E+02 -1.469983088E+02 -3.789245160E+02  4.514314299E+02  1.250000000E+02  0.00000E+00  9.000E+00
      25     1     1     2     0     0 -1.779441016E+02  1.194355886E+02 -8.432094889E+01  2.620381376E+02  1.250000000E+02  0.00000E+00  9.000E+00
       2     1     1     2   501     0  2.637548895E+01  2.756272016E+01  9.121513164E+02  9.129487356E+02  0.000000000E+00  0.00000E+00  9.000E+00
#rwgt            1           1   3.3147996367980534E-002          26      106702           0
</event>
<event>
      5   9999  3.70600E-02  3.42548E+01 -1.00000E+00  1.49141E-01
      -1    -1     0     0     0   501  0.000000000E+00  0.000000000E+00  3.009205276E+02  3.009205276E+02  0.000000000E+00  0.00000E+00  9.000E+00
      21    -1     0     0   501   502  0.000000000E+00  0.000000000E+00 -5.938695801E+02  5.938695801E+02  0.000000000E+00  0.00000E+00  9.000E+00
      25     1     1     2     0     0  1.007982114E+02 -1.751440223E+02 -3.755761047E+02  4.444301052E+02  1.250000000E+02  0.00000E+00  9.000E+00
      25     1     1     2     0     0 -6.695879491E+01  1.698256100E+02 -1.153031296E+02  2.494875342E+02  1.250000000E+02  0.00000E+00  9.000E+00
      -1     1     1     2     0   502 -3.383941649E+01  5.318412367E+00  1.979301818E+02  2.008724682E+02  2.697398305E-06  0.00000E+00  9.000E+00
#rwgt            1           1   3.8619066877552302E-002          26      106897           0
</event>
<event>
      5   9999  3.70600E-02  2.25075E+01 -1.00000E+00  1.62242E-01
      21    -1     0     0   511   501  0.000000000E+00  0.000000000E+00  8.924767813E+01  8.924767813E+01  0.000000000E+00  0.00000E+00  9.000E+00
      21    -1     0     0   501   502  0.000000000E+00  0.000000000E+00 -6.637436083E+02  6.637436083E+02  0.000000000E+00  0.00000E+00  9.000E+00
      25     1     1     2     0     0 -8.190789975E+01 -1.760023414E+02 -3.905096287E+02  4.536612154E+02  1.250000000E+02  0.00000E+00  9.000E+00
      25     1     1     2     0     0  6.715740536E+01  1.590020655E+02 -1.717879194E+02  2.737295438E+02  1.250000000E+02  0.00000E+00  9.000E+00
      21     1     1     2   511   502  1.475049438E+01  1.700027593E+01 -1.219838204E+01  2.560052715E+01  2.384185791E-07  0.00000E+00  9.000E+00
#rwgt            1           1   3.9458916979317915E-002          26      107088           0
</event>
<event>
      5   9999  3.70600E-02  2.62024E+02 -1.00000E+00  1.07536E-01
       3    -1     0     0   502     0  0.000000000E+00  0.000000000E+00  3.995618634E+03  3.995618634E+03  0.000000000E+00  0.00000E+00  9.000E+00
      21    -1     0     0   501   502  0.000000000E+00  0.000000000E+00 -8.277413924E+01  8.277413924E+01  0.000000000E+00  0.00000E+00  9.000E+00
      25     1     1     2     0     0  1.504558698E+02  1.159618145E+02  3.355169118E+02  4.053155676E+02  1.250000000E+02  0.00000E+00  9.000E+00
      25     1     1     2     0     0 -1.176196249E+02  1.439964756E+02  2.509990836E+02  3.364444993E+02  1.250000000E+02  0.00000E+00  9.000E+00
       3     1     1     2   501     0 -3.283624484E+01 -2.599582902E+02  3.326328499E+03  3.336632706E+03  4.315837288E-05  0.00000E+00  9.000E+00
#rwgt            2          19   1.8311722173827833E-005          26      107433           0
</event>
<event>
      5   9999  3.70600E-02  9.67435E+01 -1.00000E+00  1.24476E-01
      21    -1     0     0   511   501  0.000000000E+00  0.000000000E+00  5.569241053E+02  5.569241053E+02  0.000000000E+00  0.00000E+00  9.000E+00
      21    -1     0     0   501   502  0.000000000E+00  0.000000000E+00 -2.500394371E+02  2.500394371E+02  0.000000000E+00  0.00000E+00  9.000E+00
      25     1     1     2     0     0  1.197353092E+02  7.925627618E+01 -1.659401868E+02  2.525455349E+02  1.250000000E+02  0.00000E+00  9.000E+00
      25     1     1     2     0     0 -1.447405334E+02  1.419982125E+01  3.354311293E+02  3.863812876E+02  1.250000000E+02  0.00000E+00  9.000E+00
      21     1     1     2   511   502  2.500522426E+01 -9.345609743E+01  1.373937257E+02  1.680367199E+02  1.907348633E-06  0.00000E+00  9.000E+00
#rwgt            1           1   5.2929503855168612E-002          26      107692           0
</event>
<event>
      5   9999  3.70600E-02  6.37902E+01 -1.00000E+00  1.33295E-01
      21    -1     0     0   502   512  0.000000000E+00  0.000000000E+00  2.155602183E+03  2.155602183E+03  0.000000000E+00  0.00000E+00  9.000E+00
      21    -1     0     0   501   502  0.000000000E+00  0.000000000E+00 -3.027703173E+01  3.027703173E+01  0.000000000E+00  0.00000E+00  9.000E+00
      25     1     1     2     0     0 -8.622078032E-01 -4.516711218E+01  1.486646100E+02  1.994165933E+02  1.250000000E+02  0.00000E+00  9.000E+00
      25     1     1     2     0     0  3.548429633E+01 -8.409931252E+00  1.481234237E+03  1.486946444E+03  1.250000000E+02  0.00000E+00  9.000E+00
      21     1     1     2   501   512 -3.462208852E+01  5.357704344E+01  4.954263037E+02  4.995161769E+02  7.629394531E-06  0.00000E+00  9.000E+00
#rwgt            1           1   5.9324756464661184E-002          26      107897           0
</event>
<event>
      5   9999  3.70600E-02  9.04414E+01 -1.00000E+00  1.25821E-01
      21    -1     0     0   511   501  0.000000000E+00  0.000000000E+00  2.890286239E+02  2.890286239E+02  0.000000000E+00  0.00000E+00  9.000E+00
      21    -1     0     0   501   502  0.000000000E+00  0.000000000E+00 -2.129975744E+02  2.129975744E+02  0.000000000E+00  0.00000E+00  9.000E+00
      25     1     1     2     0     0  3.686951216E+01  1.269878676E+02 -8.508979249E+01  2.008744689E+02  1.250000000E+02  0.00000E+00  9.000E+00
      25     1     1     2     0     0  4.645678055E+01 -9.182574869E+01  8.459491017E+01  1.826786780E+02  1.250000000E+02  0.00000E+00  9.000E+00
      21     1     1     2   511   502 -8.332629271E+01 -3.516211896E+01  7.652593177E+01  1.184730514E+02  1.348699152E-06  0.00000E+00  9.000E+00
#rwgt            1           1   2.9784189358209066E-002          26      107999           0
</event>
<event>
      5   9999  3.70600E-02  3.86016E+01  7.55638E-03  1.45803E-01
      -4    -1     0     0     0   501  0.000000000E+00  0.000000000E+00  7.001464776E+01  7.001464776E+01  0.000000000E+00  0.00000E+00  9.000E+00
       4    -1     0     0   502     0  0.000000000E+00  0.000000000E+00 -4.507725748E+02  4.507725748E+02  0.000000000E+00  0.00000E+00  9.000E+00
      25     1     1     2     0     0  2.756523924E+01 -4.475245272E+01 -1.935089916E+02  2.362908256E+02  1.250000000E+02  0.00000E+00  9.000E+00
      25     1     1     2     0     0 -4.620101627E+01  1.094724991E+01 -5.137203665E+01  1.432426694E+02  1.250000000E+02  0.00000E+00  9.000E+00
      21     1     1     2   502   501  1.863577702E+01  3.380520281E+01 -1.358768987E+02  1.412537275E+02  2.697398305E-06  0.00000E+00  9.000E+00
#rwgt            3           2   3.4717655939854746E-005          26      108227           0
</event>
<event>
      5   9999  3.70600E-02  2.41327E+01 -1.00000E+00  1.59905E-01
      21    -1     0     0   502   511  0.000000000E+00  0.000000000E+00  4.172277958E+01  4.172277958E+01  0.000000000E+00  0.00000E+00  9.000E+00
      21    -1     0     0   501   502  0.000000000E+00  0.000000000E+00 -8.624889848E+02  8.624889848E+02  0.000000000E+00  0.00000E+00  9.000E+00
      25     1     1     2     0     0  1.029425826E+02  4.865228328E+00 -5.243678391E+02  5.488237207E+02  1.250000000E+02  0.00000E+00  9.000E+00
      25     1     1     2     0     0 -1.169879894E+02  1.475911541E+01 -2.636959408E+02  3.147452467E+02  1.250000000E+02  0.00000E+00  9.000E+00
      21     1     1     2   501   511  1.404540679E+01 -1.962434374E+01 -3.270242537E+01  4.064279695E+01  4.768371582E-07  0.00000E+00  9.000E+00
#rwgt            1           1  0.15188021378598543               26      108591           0
</event>
<event>
      5   9999  3.70600E-02  1.07835E+01 -1.00000E+00  1.92040E-01
      21    -1     0     0   502   501  0.000000000E+00  0.000000000E+00  1.752520373E+02  1.752520373E+02  0.000000000E+00  0.00000E+00  9.000E+00
      21    -1     0     0   501   512  0.000000000E+00  0.000000000E+00 -1.208158370E+03  1.208158370E+03  0.000000000E+00  0.00000E+00  9.000E+00
      25     1     1     2     0     0 -2.777024479E+02 -1.091386813E+00 -2.259551783E+02  3.792104736E+02  1.250000000E+02  0.00000E+00  9.000E+00
      25     1     1     2     0     0  2.703438401E+02  8.973990886E+00 -1.265903450E+02  3.237536716E+02  1.250000000E+02  0.00000E+00  9.000E+00
      21     1     1     2   502   512  7.358607795E+00 -7.882604073E+00 -6.803608097E+02  6.804462624E+02  1.078959322E-05  0.00000E+00  9.000E+00
#rwgt            1           1   3.7368557063549052E-002          26      108903           0
</event>
<event>
      5   9999  3.70600E-02  7.83399E+01 -1.00000E+00  1.28790E-01
      21    -1     0     0   502   511  0.000000000E+00  0.000000000E+00  4.086934570E+02  4.086934570E+02  0.000000000E+00  0.00000E+00  9.000E+00
      21    -1     0     0   501   502  0.000000000E+00  0.000000000E+00 -2.381627501E+02  2.381627501E+02  0.000000000E+00  0.00000E+00  9.000E+00
      25     1     1     2     0     0 -4.251135513E+01  1.278423305E+02 -4.044711158E+01  1.881803539E+02  1.250000000E+02  0.00000E+00  9.000E+00
      25     1     1     2     0     0  5.153306915E+00 -1.967009918E+02 -5.406219972E-01  2.331161278E+02  1.250000000E+02  0.00000E+00  9.000E+00
      21     1     1     2   501   511  3.735804822E+01  6.885866137E+01  2.115184405E+02  2.255597253E+02  2.697398305E-06  0.00000E+00  9.000E+00
#rwgt            1           1   3.0437345862155966E-002          26      109768           0
</event>
<event>
      5   9999  3.70600E-02  1.62623E+02 -1.00000E+00  1.15018E-01
      21    -1     0     0   502   501  0.000000000E+00  0.000000000E+00  7.030000327E+02  7.030000327E+02  0.000000000E+00  0.00000E+00  9.000E+00
      21    -1     0     0   501   512  0.000000000E+00  0.000000000E+00 -1.689379114E+02  1.689379114E+02  0.000000000E+00  0.00000E+00  9.000E+00
      25     1     1     2     0     0 -1.454698291E+02 -1.446470250E+02  2.308940098E+02  3.331985546E+02  1.250000000E+02  0.00000E+00  9.000E+00
      25     1     1     2     0     0 -1.404036301E+01  1.763149858E+02  3.074283437E+02  3.760602246E+02  1.250000000E+02  0.00000E+00  9.000E+00
      21     1     1     2   502   512  1.595101921E+02 -3.166796086E+01 -4.260232165E+00  1.626791650E+02  2.722307979E-06  0.00000E+00  9.000E+00
#rwgt            1           1   3.5916149632249046E-002          26      109916           0
</event>
<event>
      5   9999  3.70600E-02  1.32363E+02 -1.00000E+00  1.18586E-01
      21    -1     0     0   502   501  0.000000000E+00  0.000000000E+00  3.860879796E+02  3.860879796E+02  0.000000000E+00  0.00000E+00  9.000E+00
      21    -1     0     0   501   511  0.000000000E+00  0.000000000E+00 -6.029652087E+02  6.029652087E+02  0.000000000E+00  0.00000E+00  9.000E+00
      25     1     1     2     0     0  3.189716397E+02  3.718492721E+01 -2.045075240E+02  4.007167991E+02  1.250000000E+02  0.00000E+00  9.000E+00
      25     1     1     2     0     0 -3.780155369E+02 -1.556490912E+02  6.891264942E+01  4.330084745E+02  1.250000000E+02  0.00000E+00  9.000E+00
      21     1     1     2   502   511  5.904389721E+01  1.184641640E+02 -8.128235459E+01  1.553279148E+02  3.015782986E-06  0.00000E+00  9.000E+00
#rwgt            1           1   4.1582467253680311E-002          26      110421           0
</event>
<event>
      5   9999 -3.70600E-02  1.73123E+01 -1.00000E+00  1.71709E-01
      21    -1     0     0   512   501  0.000000000E+00  0.000000000E+00  6.487738998E+02  6.487738998E+02  0.000000000E+00  0.00000E+00  9.000E+00
      21    -1     0     0   501   502  0.000000000E+00  0.000000000E+00 -1.600582853E+03  1.600582853E+03  0.000000000E+00  0.00000E+00  9.000E+00
      25     1     1     2     0     0  1.181842418E+01  1.682370048E+02 -1.042174013E+03  1.063106315E+03  1.250000000E+02  0.00000E+00  9.000E+00
      25     1     1     2     0     0  4.231984764E+00 -1.617484776E+02 -5.287436339E+02  5.668997355E+02  1.250000000E+02  0.00000E+00  9.000E+00
      21     1     1     2   512   502 -1.605040895E+01 -6.488527156E+00  6.191086939E+02  6.193507015E+02  1.321449896E-05  0.00000E+00  9.000E+00
#rwgt            1           1  -5.4515334878824359E-002          26      111100           0
</event>
<event>
      5   9999  3.70600E-02  1.75852E+02 -1.00000E+00  1.13719E-01
      21    -1     0     0   502   501  0.000000000E+00  0.000000000E+00  6.268265402E+02  6.268265402E+02  0.000000000E+00  0.00000E+00  9.000E+00
      21    -1     0     0   511   502  0.000000000E+00  0.000000000E+00 -2.000743558E+02  2.000743558E+02  0.000000000E+00  0.00000E+00  9.000E+00
      25     1     1     2     0     0 -1.206393595E+02  1.218237394E+02  1.812624513E+02  2.790626360E+02  1.250000000E+02  0.00000E+00  9.000E+00
      25     1     1     2     0     0 -4.043002710E+01 -1.923968696E+02  2.844934385E+02  3.677127399E+02  1.250000000E+02  0.00000E+00  9.000E+00
      21     1     1     2   511   501  1.610693865E+02  7.057313019E+01 -3.900370545E+01  1.801255202E+02  1.348699152E-06  0.00000E+00  9.000E+00
#rwgt            1           1   4.1926635899580032E-002          26      111389           0
</event>
<event>
      5   9999  3.70600E-02  8.61533E+01 -1.00000E+00  1.26809E-01
      21    -1     0     0   502   501  0.000000000E+00  0.000000000E+00  3.616067582E+02  3.616067582E+02  0.000000000E+00  0.00000E+00  9.000E+00
      21    -1     0     0   512   502  0.000000000E+00  0.000000000E+00 -1.933115899E+02  1.933115899E+02  0.000000000E+00  0.00000E+00  9.000E+00
      25     1     1     2     0     0  1.274569424E+02 -6.403786009E+01  3.952630046E+01  1.937355107E+02  1.250000000E+02  0.00000E+00  9.000E+00
      25     1     1     2     0     0 -5.887693129E+01  1.189220161E+01  2.040875736E+02  2.467481614E+02  1.250000000E+02  0.00000E+00  9.000E+00
      21     1     1     2   512   501 -6.858001110E+01  5.214565848E+01 -7.531870573E+01  1.144346759E+02  9.536743164E-07  0.00000E+00  9.000E+00
#rwgt            1           1   4.1226464853355932E-002          26      112039           0
</event>
<event>
      5   9999  3.70600E-02  4.85278E+01 -1.00000E+00  1.39818E-01
      21    -1     0     0   502   501  0.000000000E+00  0.000000000E+00  5.754431335E+02  5.754431335E+02  0.000000000E+00  0.00000E+00  9.000E+00
      21    -1     0     0   501   511  0.000000000E+00  0.000000000E+00 -1.328246119E+02  1.328246119E+02  0.000000000E+00  0.00000E+00  9.000E+00
      25     1     1     2     0     0  1.250743778E+02  1.846930781E+01  3.038569697E+01  1.803690825E+02  1.250000000E+02  0.00000E+00  9.000E+00
      25     1     1     2     0     0 -1.492401515E+02  2.361350448E+01  4.328296756E+02  4.751807535E+02  1.250000000E+02  0.00000E+00  9.000E+00
      21     1     1     2   502   511  2.416577362E+01 -4.208281229E+01 -2.059685101E+01  5.271790945E+01  7.152557373E-07  0.00000E+00  9.000E+00
#rwgt            1           1   8.3373291383686977E-003          26      112532           0
</event>
<event>
      5   9999  3.70600E-02  8.03597E+01 -1.00000E+00  1.28253E-01
      -2    -1     0     0     0   501  0.000000000E+00  0.000000000E+00  1.825763659E+02  1.825763659E+02  0.000000000E+00  0.00000E+00  9.000E+00
      21    -1     0     0   501   502  0.000000000E+00  0.000000000E+00 -1.318740805E+03  1.318740805E+03  0.000000000E+00  0.00000E+00  9.000E+00
      25     1     1     2     0     0 -1.594054892E+02 -1.520222341E+01 -1.093816895E+03  1.112520390E+03  1.250000000E+02  0.00000E+00  9.000E+00
      25     1     1     2     0     0  1.779495320E+02 -6.298858059E+01 -1.370040708E+02  2.646293873E+02  1.250000000E+02  0.00000E+00  9.000E+00
      -2     1     1     2     0   502 -1.854404286E+01  7.819080400E+01  9.465652740E+01  1.241673932E+02  4.672030912E-06  0.00000E+00  9.000E+00
#rwgt            1           1   4.3359816722729601E-002          26      112763           0
</event>
<event>
      5   9999 -3.70600E-02  1.42987E+02 -1.00000E+00  1.17222E-01
      21    -1     0     0   511   501  0.000000000E+00  0.000000000E+00  5.013161261E+01  5.013161261E+01  0.000000000E+00  0.00000E+00  9.000E+00
      21    -1     0     0   501   502  0.000000000E+00  0.000000000E+00 -2.035117420E+03  2.035117420E+03  0.000000000E+00  0.00000E+00  9.000E+00
      25     1     1     2     0     0 -6.768353134E+01 -1.883781453E+02 -6.210168761E+02  6.643450507E+02  1.250000000E+02  0.00000E+00  9.000E+00
      25     1     1     2     0     0 -6.329396336E+00  6.603730841E+01 -1.177250483E+03  1.185725384E+03  1.250000000E+02  0.00000E+00  9.000E+00
      21     1     1     2   511   502  7.401292767E+01  1.223408369E+02 -1.867184486E+02  2.351785978E+02  4.672030912E-06  0.00000E+00  9.000E+00
#rwgt            1           1  -3.9650677688253977E-002          26      113170           0
</event>
<event>
      5   9999  3.70600E-02  2.99592E+01 -1.00000E+00  1.53078E-01
      21    -1     0     0   502   501  0.000000000E+00  0.000000000E+00  1.481599869E+02  1.481599869E+02  0.000000000E+00  0.00000E+00  9.000E+00
      21    -1     0     0   512   502  0.000000000E+00  0.000000000E+00 -3.869801676E+02  3.869801676E+02  0.000000000E+00  0.00000E+00  9.000E+00
      25     1     1     2     0     0  3.216186994E+01 -5.093987038E+01  7.949638662E+01  1.599185160E+02  1.250000000E+02  0.00000E+00  9.000E+00
      25     1     1     2     0     0 -5.250265298E+01  2.894433963E+01 -1.499737579E+02  2.042337666E+02  1.250000000E+02  0.00000E+00  9.000E+00
      21     1     1     2   512   501  2.034078304E+01  2.199553074E+01 -1.683428094E+02  1.709878718E+02  1.907348633E-06  0.00000E+00  9.000E+00
#rwgt            1           1   3.6137197298628132E-002          26      113409           0
</event>
<event>
      5   9999  3.70600E-02  8.52377E+00 -1.00000E+00  2.04129E-01
      21    -1     0     0   502   501  0.000000000E+00  0.000000000E+00  1.010406038E+02  1.010406038E+02  0.000000000E+00  0.00000E+00  9.000E+00
      21    -1     0     0   501   511  0.000000000E+00  0.000000000E+00 -1.018090908E+03  1.018090908E+03  0.000000000E+00  0.00000E+00  9.000E+00
      25     1     1     2     0     0  1.020582997E+02  2.150365632E+02 -2.324179726E+02  3.553867387E+02  1.250000000E+02  0.00000E+00  9.000E+00
      25     1     1     2     0     0 -9.440244276E+01 -2.187839049E+02 -4.189009261E+02  4.978766957E+02  1.250000000E+02  0.00000E+00  9.000E+00
      21     1     1     2   502   511 -7.655856991E+00  3.747341675E+00 -2.657314051E+02  2.658680770E+02  0.000000000E+00  0.00000E+00  9.000E+00
#rwgt            1           1   3.2305762912950363E-002          26      113715           0
</event>
<event>
      5   9999  3.70600E-02  2.75736E+01 -1.00000E+00  1.55625E-01
      21    -1     0     0   502   501  0.000000000E+00  0.000000000E+00  6.308596902E+02  6.308596902E+02  0.000000000E+00  0.00000E+00  9.000E+00
      21    -1     0     0   512   502  0.000000000E+00  0.000000000E+00 -1.410808600E+02  1.410808600E+02  0.000000000E+00  0.00000E+00  9.000E+00
      25     1     1     2     0     0 -1.307333240E+02  1.180290647E+02  2.925183740E+02  3.636125153E+02  1.250000000E+02  0.00000E+00  9.000E+00
      25     1     1     2     0     0  1.211097665E+02 -1.438688115E+02  2.572537749E+02  3.423014975E+02  1.250000000E+02  0.00000E+00  9.000E+00
      21     1     1     2   512   501  9.623557450E+00  2.583974679E+01 -5.999331867E+01  6.602653752E+01  1.784161275E-06  0.00000E+00  9.000E+00
#rwgt            1           1   3.1616778276378502E-002          26      114642           0
</event>
<event>
      5   9999  3.70600E-02  1.91039E+01 -1.00000E+00  1.68025E-01
      21    -1     0     0   502   511  0.000000000E+00  0.000000000E+00  7.791109257E+02  7.791109257E+02  0.000000000E+00  0.00000E+00  9.000E+00
      21    -1     0     0   501   502  0.000000000E+00  0.000000000E+00 -8.915693091E+01  8.915693091E+01  0.000000000E+00  0.00000E+00  9.000E+00
      25     1     1     2     0     0  8.704662492E+01 -1.467467124E+01  7.508701688E+01  1.704568010E+02  1.250000000E+02  0.00000E+00  9.000E+00
      25     1     1     2     0     0 -9.422750301E+01 -3.028251889E+00  1.071186071E+02  1.897034228E+02  1.250000000E+02  0.00000E+00  9.000E+00
      21     1     1     2   501   511  7.180878082E+00  1.770292313E+01  5.077483708E+02  5.081076328E+02  0.000000000E+00  0.00000E+00  9.000E+00
#rwgt            1           1   2.3528072591695474E-002          26      114904           0
</event>
<event>
      5   9999  3.70600E-02  1.01089E+02 -1.00000E+00  1.23615E-01
      21    -1     0     0   502   512  0.000000000E+00  0.000000000E+00  1.026394429E+03  1.026394429E+03  0.000000000E+00  0.00000E+00  9.000E+00
      21    -1     0     0   501   502  0.000000000E+00  0.000000000E+00 -1.992736329E+02  1.992736329E+02  0.000000000E+00  0.00000E+00  9.000E+00
      25     1     1     2     0     0 -1.193593208E+02 -3.726690495E+02  4.993341432E+02  6.465975986E+02  1.250000000E+02  0.00000E+00  9.000E+00
      25     1     1     2     0     0  2.492835879E+01  3.365883776E+02  1.865586238E+02  4.053915133E+02  1.250000000E+02  0.00000E+00  9.000E+00
      21     1     1     2   501   512  9.443096199E+01  3.608067191E+01  1.412280292E+02  1.736789501E+02  1.907348633E-06  0.00000E+00  9.000E+00
#rwgt            1           1   3.3016712456063080E-002          26      115253           0
</event>
<event>
      5   9999  3.70600E-02  1.59112E+02 -1.00000E+00  1.15386E-01
      21    -1     0     0   502   501  0.000000000E+00  0.000000000E+00  1.267237045E+03  1.267237045E+03  0.000000000E+00  0.00000E+00  9.000E+00
      21    -1     0     0   511   502  0.000000000E+00  0.000000000E+00 -2.312861817E+02  2.312861817E+02  0.000000000E+00  0.00000E+00  9.000E+00
      25     1     1     2     0     0 -1.436310816E+02 -2.498775472E+02  8.167209389E+02  8.750581513E+02  1.250000000E+02  0.00000E+00  9.000E+00
      25     1     1     2     0     0  7.853582482E+00  1.669243797E+02  3.566539612E+02  4.132220654E+02  1.250000000E+02  0.00000E+00  9.000E+00
      21     1     1     2   511   501  1.357774991E+02  8.295316744E+01 -1.374240369E+02  2.102430098E+02  6.607249480E-06  0.00000E+00  9.000E+00
#rwgt            1           1   4.2439889199802093E-002          26      115692           0
</event>
<event>
      5   9999  3.70600E-02  9.18153E+00 -1.00000E+00  2.00139E-01
      21    -1     0     0   502   501  0.000000000E+00  0.000000000E+00  3.905610444E+02  3.905610444E+02  0.000000000E+00  0.00000E+00  9.000E+00
      21    -1     0     0   501   512  0.000000000E+00  0.000000000E+00 -1.070227419E+02  1.070227419E+02  0.000000000E+00  0.00000E+00  9.000E+00
      25     1     1     2     0     0  6.418848238E+00 -1.225429033E+02  5.568753186E+01  1.838044231E+02  1.250000000E+02  0.00000E+00  9.000E+00
      25     1     1     2     0     0 -6.166180854E+00  1.317209530E+02  2.384306988E+02  2.997709615E+02  1.250000000E+02  0.00000E+00  9.000E+00
      21     1     1     2   502   512 -2.526673845E-01 -9.178049644E+00 -1.057992814E+01  1.400840160E+01  3.153981341E-07  0.00000E+00  9.000E+00
#rwgt            1           1   3.5209199462450574E-002          26      115876           0
</event>
<event>
      5   9999  3.70600E-02  4.50867E+01 -1.00000E+00  1.41686E-01
      21    -1     0     0   502   501  0.000000000E+00  0.000000000E+00  1.318929855E+03  1.318929855E+03  0.000000000E+00  0.00000E+00  9.000E+00
      21    -1     0     0   511   502  0.000000000E+00  0.000000000E+00 -1.775278310E+02  1.775278310E+02  0.000000000E+00  0.00000E+00  9.000E+00
      25     1     1     2     0     0  9.763156130E+01  1.765459446E+02  4.790618030E+02  5.346266019E+02  1.250000000E+02  0.00000E+00  9.000E+00
      25     1     1     2     0     0 -8.076199955E+01 -1.347341218E+02  7.959203824E+02  8.208471473E+02  1.250000000E+02  0.00000E+00  9.000E+00
      21     1     1     2   511   501 -1.686956175E+01 -4.181182283E+01 -1.335801619E+02  1.409839363E+02  4.264961200E-06  0.00000E+00  9.000E+00
#rwgt            1           1   4.4627664669104825E-002          26      116390           0
</event>
<event>
      5   9999  3.70600E-02  1.18540E+02 -1.00000E+00  1.20593E-01
      21    -1     0     0   502   501  0.000000000E+00  0.000000000E+00  1.112135379E+03  1.112135379E+03  0.000000000E+00  0.00000E+00  9.000E+00
      21    -1     0     0   501   512  0.000000000E+00  0.000000000E+00 -6.574860461E+02  6.574860461E+02  0.000000000E+00  0.00000E+00  9.000E+00
      25     1     1     2     0     0 -1.284271492E+02 -1.220814246E+02  8.198211010E+02  8.480147667E+02  1.250000000E+02  0.00000E+00  9.000E+00
      25     1     1     2     0     0  1.036358046E+01  1.114622520E+02  2.467003672E+02  2.983576857E+02  1.250000000E+02  0.00000E+00  9.000E+00
      21     1     1     2   502   512  1.180635687E+02  1.061917261E+01 -6.118721349E+02  6.232489732E+02  1.525878906E-05  0.00000E+00  9.000E+00
#rwgt            1           1  0.20525511027251564               26      116690           0
</event>
<event>
      5   9999  3.70600E-02  9.18893E+01 -1.00000E+00  1.25501E-01
      21    -1     0     0   502   501  0.000000000E+00  0.000000000E+00  3.164982353E+01  3.164982353E+01  0.000000000E+00  0.00000E+00  9.000E+00
       2    -1     0     0   501     0  0.000000000E+00  0.000000000E+00 -2.985797433E+03  2.985797433E+03  0.000000000E+00  0.00000E+00  9.000E+00
      25     1     1     2     0     0 -9.476399041E+01 -1.563214606E+01 -4.740512357E+02  4.995739705E+02  1.250000000E+02  0.00000E+00  9.000E+00
      25     1     1     2     0     0  6.211476711E+01  1.015255502E+02 -3.987845029E+02  4.345339588E+02  1.250000000E+02  0.00000E+00  9.000E+00
       2     1     1     2   502     0  3.264922330E+01 -8.589340411E+01 -2.081311871E+03  2.083339328E+03  0.000000000E+00  0.00000E+00  9.000E+00
#rwgt            1           1   5.9800487336803959E-002          26      116928           0
</event>
<event>
      5   9999  3.70600E-02  7.33369E+01 -1.00000E+00  1.30203E-01
      21    -1     0     0   502   511  0.000000000E+00  0.000000000E+00  5.295147980E+02  5.295147980E+02  0.000000000E+00  0.00000E+00  9.000E+00
      21    -1     0     0   501   502  0.000000000E+00  0.000000000E+00 -1.282170803E+02  1.282170803E+02  0.000000000E+00  0.00000E+00  9.000E+00
      25     1     1     2     0     0  1.274730045E+02 -2.117350552E+01  1.576835339E+02  2.391375777E+02  1.250000000E+02  0.00000E+00  9.000E+00
      25     1     1     2     0     0 -2.006641515E+02  1.655160620E+01  9.977486646E+01  2.571382533E+02  1.250000000E+02  0.00000E+00  9.000E+00
      21     1     1     2   501   511  7.319114697E+01  4.621899320E+00  1.438393174E+02  1.614560472E+02  0.000000000E+00  0.00000E+00  9.000E+00
#rwgt            1           1  0.15763473213868259               26      117267           0
</event>
<event>
      5   9999  3.70600E-02  1.95529E+01 -1.00000E+00  1.67180E-01
      21    -1     0     0   502   501  0.000000000E+00  0.000000000E+00  1.422621476E+02  1.422621476E+02  0.000000000E+00  0.00000E+00  9.000E+00
      21    -1     0     0   501   512  0.000000000E+00  0.000000000E+00 -7.631366486E+02  7.631366486E+02  0.000000000E+00  0.00000E+00  9.000E+00
      25     1     1     2     0     0 -7.380269998E+01  5.768546546E+01  8.440969614E+01  1.775512553E+02  1.250000000E+02  0.00000E+00  9.000E+00
      25     1     1     2     0     0  8.212137339E+01 -3.999041443E+01 -5.512486894E+02  5.725759956E+02  1.250000000E+02  0.00000E+00  9.000E+00
      21     1     1     2   502   512 -8.318673411E+00 -1.769505103E+01 -1.540355077E+02  1.552715453E+02  3.303624740E-06  0.00000E+00  9.000E+00
#rwgt            1           1   4.3068444728574899E-002          26      118243           0
</event>
<event>
      5   9999  3.70600E-02  7.11400E+00 -1.00000E+00  2.14561E-01
      21    -1     0     0   502   501  0.000000000E+00  0.000000000E+00  4.467426539E+02  4.467426539E+02  0.000000000E+00  0.00000E+00  9.000E+00
       2    -1     0     0   501     0  0.000000000E+00  0.000000000E+00 -1.177845659E+03  1.177845659E+03  0.000000000E+00  0.00000E+00  9.000E+00
      25     1     1     2     0     0 -3.590469325E+00 -1.735578586E+02  3.071866950E+02  3.743312535E+02  1.250000000E+02  0.00000E+00  9.000E+00
      25     1     1     2     0     0  6.829228617E+00  1.672238709E+02  3.030056885E+00  2.089130024E+02  1.250000000E+02  0.00000E+00  9.000E+00
       2     1     1     2   502     0 -3.238759292E+00  6.333987749E+00 -1.041319757E+03  1.041344057E+03  0.000000000E+00  0.00000E+00  9.000E+00
#rwgt            1           1   1.7901551992277366E-002          26      118817           0
</event>
<event>
      5   9999  3.70600E-02  3.21927E+01 -1.00000E+00  1.50939E-01
      21    -1     0     0   502   511  0.000000000E+00  0.000000000E+00  1.917030954E+02  1.917030954E+02  0.000000000E+00  0.00000E+00  9.000E+00
      21    -1     0     0   501   502  0.000000000E+00  0.000000000E+00 -8.047975884E+02  8.047975884E+02  0.000000000E+00  0.00000E+00  9.000E+00
      25     1     1     2     0     0 -1.583658975E+02 -8.120540110E+01 -1.680303298E+02  2.748331610E+02  1.250000000E+02  0.00000E+00  9.000E+00
      25     1     1     2     0     0  1.690320813E+02  5.083098817E+01 -5.610500991E+02  6.012968049E+02  1.250000000E+02  0.00000E+00  9.000E+00
      21     1     1     2   501   511 -1.066618379E+01  3.037441292E+01  1.159859358E+02  1.203707180E+02  1.348699152E-06  0.00000E+00  9.000E+00
#rwgt            1           1   3.7632237340781444E-002          26      119682           0
</event>
<event>
      5   9999  3.70600E-02  8.60288E+01 -1.00000E+00  1.26839E-01
      21    -1     0     0   502   512  0.000000000E+00  0.000000000E+00  1.226238378E+03  1.226238378E+03  0.000000000E+00  0.00000E+00  9.000E+00
      21    -1     0     0   501   502  0.000000000E+00  0.000000000E+00 -3.382110059E+02  3.382110059E+02  0.000000000E+00  0.00000E+00  9.000E+00
      25     1     1     2     0     0  2.024398906E+02 -9.360015695E+01 -1.623902258E+02  3.028836148E+02  1.250000000E+02  0.00000E+00  9.000E+00
      25     1     1     2     0     0 -1.588101618E+02  1.945575022E+01 -4.557774430E+00  2.030885694E+02  1.250000000E+02  0.00000E+00  9.000E+00
      21     1     1     2   501   512 -4.362972880E+01  7.414440672E+01  1.054975373E+03  1.058477200E+03  0.000000000E+00  0.00000E+00  9.000E+00
#rwgt            1           1   3.4022715373535330E-002          26      120122           0
</event>
<event>
      5   9999  3.70600E-02  1.42516E+02 -1.00000E+00  1.17280E-01
      -5    -1     0     0     0   501  0.000000000E+00  0.000000000E+00  9.655054797E+02  9.655054797E+02  0.000000000E+00  0.00000E+00  9.000E+00
      21    -1     0     0   501   502  0.000000000E+00  0.000000000E+00 -1.759738688E+02  1.759738688E+02  0.000000000E+00  0.00000E+00  9.000E+00
      25     1     1     2     0     0 -1.601564464E+02  1.430846718E+02 -4.427298983E+01  2.524052461E+02  1.250000000E+02  0.00000E+00  9.000E+00
      25     1     1     2     0     0  7.879669573E+01 -2.607490557E+01  5.678762424E+02  5.873646624E+02  1.250000000E+02  0.00000E+00  9.000E+00
      -5     1     1     2     0   502  8.135975067E+01 -1.170097663E+02  2.659283582E+02  3.017094399E+02  5.394796609E-06  0.00000E+00  9.000E+00
#rwgt            1           1   2.7961495850078830E-002          26      120438           0
</event>
<event>
      5   9999  3.70600E-02  1.12012E+01 -1.00000E+00  1.90225E-01
      21    -1     0     0   502   511  0.000000000E+00  0.000000000E+00  9.117813900E+01  9.117813900E+01  0.000000000E+00  0.00000E+00  9.000E+00
      21    -1     0     0   501   502  0.000000000E+00  0.000000000E+00 -5.602430899E+02  5.602430899E+02  0.000000000E+00  0.00000E+00  9.000E+00
      25     1     1     2     0     0  2.046425888E+01 -1.197776625E+02 -2.563415208E+02  3.100023381E+02  1.250000000E+02  0.00000E+00  9.000E+00
      25     1     1     2     0     0 -3.166536022E+01  1.198223735E+02 -2.481619623E+02  3.042522896E+02  1.250000000E+02  0.00000E+00  9.000E+00
      21     1     1     2   501   511  1.120110134E+01 -4.471091563E-02  3.543853225E+01  3.716660111E+01  1.261592536E-06  0.00000E+00  9.000E+00
#rwgt            1           1   2.9828724631797233E-002          26      120644           0
</event>
<event>
      5   9999  3.70600E-02  5.09564E+01 -1.00000E+00  1.38605E-01
      21    -1     0     0   502   501  0.000000000E+00  0.000000000E+00  4.041092317E+02  4.041092317E+02  0.000000000E+00  0.00000E+00  9.000E+00
      21    -1     0     0   501   512  0.000000000E+00  0.000000000E+00 -6.373662716E+02  6.373662716E+02  0.000000000E+00  0.00000E+00  9.000E+00
      25     1     1     2     0     0 -8.984137284E+01 -2.893785374E+02  2.541064217E+02  4.147366438E+02  1.250000000E+02  0.00000E+00  9.000E+00
      25     1     1     2     0     0  1.350607909E+02  2.658890370E+02 -4.744603486E+02  5.741742067E+02  1.250000000E+02  0.00000E+00  9.000E+00
      21     1     1     2   502   512 -4.521941808E+01  2.348950036E+01 -1.290311308E+01  5.256465282E+01  1.168007728E-06  0.00000E+00  9.000E+00
#rwgt            1           1  0.49828645442858421               26      121427           0
</event>
<event>
      5   9999  3.70600E-02  1.51925E+01 -1.00000E+00  1.76860E-01
      21    -1     0     0   502   501  0.000000000E+00  0.000000000E+00  2.255915395E+02  2.255915395E+02  0.000000000E+00  0.00000E+00  9.000E+00
      21    -1     0     0   501   511  0.000000000E+00  0.000000000E+00 -8.026857834E+02  8.026857834E+02  0.000000000E+00  0.00000E+00  9.000E+00
      25     1     1     2     0     0  1.561142611E+02 -5.213868721E+01  1.193323287E+02  2.386531162E+02  1.250000000E+02  0.00000E+00  9.000E+00
      25     1     1     2     0     0 -1.567970681E+02  3.696154707E+01 -1.771007147E+02  2.700761738E+02  1.250000000E+02  0.00000E+00  9.000E+00
      21     1     1     2   502   511  6.828070154E-01  1.517714014E+01 -5.193258579E+02  5.195480329E+02  0.000000000E+00  0.00000E+00  9.000E+00
#rwgt            1           1   4.6185902292057227E-002          26      121945           0
</event>
<event>
      5   9999  3.70600E-02  5.59930E+01 -1.00000E+00  1.36325E-01
      21    -1     0     0   512   501  0.000000000E+00  0.000000000E+00  2.023116231E+02  2.023116231E+02  0.000000000E+00  0.00000E+00  9.000E+00
      21    -1     0     0   501   502  0.000000000E+00  0.000000000E+00 -1.861923530E+03  1.861923530E+03  0.000000000E+00  0.00000E+00  9.000E+00
      25     1     1     2     0     0 -5.782580614E+01  6.662165730E+01 -1.246206457E+03  1.255562744E+03  1.250000000E+02  0.00000E+00  9.000E+00
      25     1     1     2     0     0  7.936877206E+01 -1.493876873E+01 -5.977575106E+02  6.160045537E+02  1.250000000E+02  0.00000E+00  9.000E+00
      21     1     1     2   512   502 -2.154296592E+01 -5.168288857E+01  1.843520608E+02  1.926678558E+02  7.629394531E-06  0.00000E+00  9.000E+00
#rwgt            1           1   9.6107649466282613E-002          26      122540           0
</event>
<event>
      5   9999  3.70600E-02  4.96419E+01 -1.00000E+00  1.39252E-01
      21    -1     0     0   502   501  0.000000000E+00  0.000000000E+00  7.792884805E+01  7.792884805E+01  0.000000000E+00  0.00000E+00  9.000E+00
      21    -1     0     0   501   511  0.000000000E+00  0.000000000E+00 -6.143948493E+02  6.143948493E+02  0.000000000E+00  0.00000E+00  9.000E+00
      25     1     1     2     0     0  8.850121717E+01 -7.934948212E+01 -1.896555432E+02  2.563650343E+02  1.250000000E+02  0.00000E+00  9.000E+00
      25     1     1     2     0     0 -1.216861315E+02  1.162694101E+02 -2.433241935E+02  3.211818075E+02  1.250000000E+02  0.00000E+00  9.000E+00
      21     1     1     2   502   511  3.318491434E+01 -3.691992795E+01 -1.034862646E+02  1.147768556E+02  1.348699152E-06  0.00000E+00  9.000E+00
#rwgt            1           1   1.8929710316149762E-002          26      122846           0
</event>
<event>
      5   9999  3.70600E-02  2.30830E+01 -1.00000E+00  1.61388E-01
      21    -1     0     0   502   512  0.000000000E+00  0.000000000E+00  4.584635417E+02  4.584635417E+02  0.000000000E+00  0.00000E+00  9.000E+00
      21    -1     0     0   501   502  0.000000000E+00  0.000000000E+00 -1.466252390E+02  1.466252390E+02  0.000000000E+00  0.00000E+00  9.000E+00
      25     1     1     2     0     0  1.403431406E+02  7.093031140E+01  3.015480464E+02  3.623306922E+02  1.250000000E+02  0.00000E+00  9.000E+00
      25     1     1     2     0     0 -1.440749800E+02 -4.815099647E+01 -2.733544765E+01  1.986160744E+02  1.250000000E+02  0.00000E+00  9.000E+00
      21     1     1     2   501   512  3.731839432E+00 -2.277931494E+01  3.762570394E+01  4.414201413E+01  4.768371582E-07  0.00000E+00  9.000E+00
#rwgt            1           1   3.8737050264938108E-002          26      123595           0
</event>
<event>
      5   9999  3.70600E-02  6.28774E+01 -1.00000E+00  1.33623E-01
      21    -1     0     0   502   501  0.000000000E+00  0.000000000E+00  2.631932192E+02  2.631932192E+02  0.000000000E+00  0.00000E+00  9.000E+00
      21    -1     0     0   501   511  0.000000000E+00  0.000000000E+00 -8.979865233E+02  8.979865233E+02  0.000000000E+00  0.00000E+00  9.000E+00
      25     1     1     2     0     0 -2.311563855E+02 -2.822200965E+01 -3.475303066E+01  2.665755607E+02  1.250000000E+02  0.00000E+00  9.000E+00
      25     1     1     2     0     0  1.682803520E+02  2.864122034E+01  6.905707021E+01  2.225589255E+02  1.250000000E+02  0.00000E+00  9.000E+00
      21     1     1     2   502   511  6.287603349E+01 -4.192106877E-01 -6.690973436E+02  6.720452564E+02  1.078959322E-05  0.00000E+00  9.000E+00
#rwgt            1           1   2.0283206452276440E-002          26      123973           0
</event>
<event>
      5   9999  3.70600E-02  1.58306E+01 -1.00000E+00  1.75203E-01
      21    -1     0     0   512   501  0.000000000E+00  0.000000000E+00  7.706114826E+01  7.706114826E+01  0.000000000E+00  0.00000E+00  9.000E+00
      21    -1     0     0   501   502  0.000000000E+00  0.000000000E+00 -3.026628584E+02  3.026628584E+02  0.000000000E+00  0.00000E+00  9.000E+00
      25     1     1     2     0     0 -6.002876844E+01  2.453295207E+01 -7.697585726E+01  1.604855177E+02  1.250000000E+02  0.00000E+00  9.000E+00
      25     1     1     2     0     0  5.251343405E+01 -3.846588483E+01 -1.464683773E+02  2.032615817E+02  1.250000000E+02  0.00000E+00  9.000E+00
      21     1     1     2   512   502  7.515334382E+00  1.393293276E+01 -2.157475599E+00  1.597690731E+01  1.812804499E-07  0.00000E+00  9.000E+00
#rwgt            1           1   6.8333294813541584E-002          26      124423           0
</event>
<event>
      5   9999  3.70600E-02  1.79751E+01 -1.00000E+00  1.70284E-01
      21    -1     0     0   502   501  0.000000000E+00  0.000000000E+00  8.849505326E+02  8.849505326E+02  0.000000000E+00  0.00000E+00  9.000E+00
      21    -1     0     0   511   502  0.000000000E+00  0.000000000E+00 -4.145894191E+01  4.145894191E+01  0.000000000E+00  0.00000E+00  9.000E+00
      25     1     1     2     0     0 -5.203232755E+01  5.867980314E+01  1.392234579E+02  2.028764492E+02  1.250000000E+02  0.00000E+00  9.000E+00
      25     1     1     2     0     0  5.708736888E+01 -4.143010473E+01  6.654850625E+02  6.807868900E+02  1.250000000E+02  0.00000E+00  9.000E+00
      21     1     1     2   511   501 -5.055041332E+00 -1.724969841E+01  3.878307029E+01  4.274613525E+01  0.000000000E+00  0.00000E+00  9.000E+00
#rwgt            1           1   3.7184714877676009E-002          26      124934           0
</event>
<event>
      5   9999  3.70600E-02  1.42133E+01 -1.00000E+00  1.79613E-01
      21    -1     0     0   502   512  0.000000000E+00  0.000000000E+00  9.672565842E+02  9.672565842E+02  0.000000000E+00  0.00000E+00  9.000E+00
      21    -1     0     0   501   502  0.000000000E+00  0.000000000E+00 -1.066919516E+02  1.066919516E+02  0.000000000E+00  0.00000E+00  9.000E+00
      25     1     1     2     0     0  1.436507845E+02  8.734468977E+01  1.297067332E+02  2.464010539E+02  1.250000000E+02  0.00000E+00  9.000E+00
      25     1     1     2     0     0 -1.436541240E+02 -1.015579558E+02  1.930685853E+02  2.895703789E+02  1.250000000E+02  0.00000E+00  9.000E+00
      21     1     1     2   501   512  3.339437683E-03  1.421326602E+01  5.377893141E+02  5.379771030E+02  7.629394531E-06  0.00000E+00  9.000E+00
#rwgt            1           1   3.0878401125477486E-002          26      125405           0
</event>
<event>
      5   9999  3.70600E-02  6.94879E+01 -1.00000E+00  1.31380E-01
      21    -1     0     0   502   501  0.000000000E+00  0.000000000E+00  1.398208875E+03  1.398208875E+03  0.000000000E+00  0.00000E+00  9.000E+00
      21    -1     0     0   511   502  0.000000000E+00  0.000000000E+00 -4.307920953E+01  4.307920953E+01  0.000000000E+00  0.00000E+00  9.000E+00
      25     1     1     2     0     0 -3.263460783E+01  7.423191567E+01  2.949240619E+02  3.304248738E+02  1.250000000E+02  0.00000E+00  9.000E+00
      25     1     1     2     0     0  5.726136044E+01 -1.392095128E+02  9.998764195E+02  1.018840520E+03  1.250000000E+02  0.00000E+00  9.000E+00
      21     1     1     2   511   501 -2.462675261E+01  6.497759711E+01  6.032918397E+01  9.202269018E+01  1.507891493E-06  0.00000E+00  9.000E+00
#rwgt            1           1   3.2811172853292603E-002          26      126551           0
</event>
<event>
      5   9999  3.70600E-02  2.57515E+01 -1.00000E+00  1.57791E-01
      21    -1     0     0   502   512  0.000000000E+00  0.000000000E+00  6.995213395E+02  6.995213395E+02  0.000000000E+00  0.00000E+00  9.000E+00
      21    -1     0     0   501   502  0.000000000E+00  0.000000000E+00 -6.608461633E+01  6.608461633E+01  0.000000000E+00  0.00000E+00  9.000E+00
      25     1     1     2     0     0 -1.092564730E+02  9.936596500E+01  3.110124024E+02  3.662844336E+02  1.250000000E+02  0.00000E+00  9.000E+00
      25     1     1     2     0     0  1.110865927E+02 -1.250523605E+02  2.742632443E+02  3.447080665E+02  1.250000000E+02  0.00000E+00  9.000E+00
      21     1     1     2   501   512 -1.830119728E+00  2.568639549E+01  4.816107650E+01  5.461345568E+01  6.743495762E-07  0.00000E+00  9.000E+00
#rwgt            1           1   3.8480108429159297E-002          26      126757           0
</event>
<event>
      5   9999  3.70600E-02  1.72479E+02 -1.00000E+00  1.14038E-01
      21    -1     0     0   511   501  0.000000000E+00  0.000000000E+00  1.512843596E+02  1.512843596E+02  0.000000000E+00  0.00000E+00  9.000E+00
      21    -1     0     0   501   502  0.000000000E+00  0.000000000E+00 -6.642391594E+02  6.642391594E+02  0.000000000E+00  0.00000E+00  9.000E+00
      25     1     1     2     0     0 -7.420563086E+01  8.367485957E+01 -2.209064957E+02  2.773673334E+02  1.250000000E+02  0.00000E+00  9.000E+00
      25     1     1     2     0     0 -8.951175014E+01 -1.379498046E+02 -3.014386334E+02  3.654213345E+02  1.250000000E+02  0.00000E+00  9.000E+00
      21     1     1     2   511   502  1.637173810E+02  5.427494503E+01  9.390329400E+00  1.727348511E+02  2.731427965E-06  0.00000E+00  9.000E+00
#rwgt            2          11   2.0191720975505085E-003          26      127119           0
</event>
<event>
      5   9999  3.70600E-02  5.76740E+01 -1.00000E+00  1.35625E-01
      21    -1     0     0   502   501  0.000000000E+00  0.000000000E+00  8.483446494E+01  8.483446494E+01  0.000000000E+00  0.00000E+00  9.000E+00
       2    -1     0     0   501     0  0.000000000E+00  0.000000000E+00 -1.074754603E+03  1.074754603E+03  0.000000000E+00  0.00000E+00  9.000E+00
      25     1     1     2     0     0  5.156276812E+01  2.200027463E+02 -3.879728367E+02  4.660556291E+02  1.250000000E+02  0.00000E+00  9.000E+00
      25     1     1     2     0     0 -1.072758306E+02 -2.050914116E+02 -3.665267927E+02  4.511512836E+02  1.250000000E+02  0.00000E+00  9.000E+00
       2     1     1     2   502     0  5.571306247E+01 -1.491133470E+01 -2.354205088E+02  2.423821553E+02  3.814697266E-06  0.00000E+00  9.000E+00
#rwgt            2          13   1.8578536682246059E-004          26      127229           0
</event>
<event>
      5   9999  3.70600E-02  2.20871E+02 -1.00000E+00  1.10100E-01
      21    -1     0     0   502   511  0.000000000E+00  0.000000000E+00  2.224248486E+02  2.224248486E+02  0.000000000E+00  0.00000E+00  9.000E+00
      21    -1     0     0   501   502  0.000000000E+00  0.000000000E+00 -1.252511727E+03  1.252511727E+03  0.000000000E+00  0.00000E+00  9.000E+00
      25     1     1     2     0     0 -2.102273069E+02  6.459809723E+01 -1.084252360E+03  1.113371732E+03  1.250000000E+02  0.00000E+00  9.000E+00
      25     1     1     2     0     0  1.704386451E+01  4.247195477E+01 -3.963347259E+00  1.331730768E+02  1.250000000E+02  0.00000E+00  9.000E+00
      21     1     1     2   501   511  1.931834424E+02 -1.070700520E+02  5.812882828E+01  2.283917668E+02  4.672030912E-06  0.00000E+00  9.000E+00
#rwgt            2          11   2.2607085224649139E-003          26      127293           0
</event>
<event>
      5   9999  3.70600E-02  3.73469E+01 -1.00000E+00  1.46711E-01
      21    -1     0     0   502   512  0.000000000E+00  0.000000000E+00  5.059555801E+02  5.059555801E+02  0.000000000E+00  0.00000E+00  9.000E+00
      21    -1     0     0   501   502  0.000000000E+00  0.000000000E+00 -7.899057257E+01  7.899057257E+01  0.000000000E+00  0.00000E+00  9.000E+00
      25     1     1     2     0     0 -1.136209657E+02 -3.319075291E+01  1.409209912E+02  2.224748878E+02  1.250000000E+02  0.00000E+00  9.000E+00
      25     1     1     2     0     0  8.238429770E+01  5.366183600E+01  1.404853540E+02  2.121977847E+02  1.250000000E+02  0.00000E+00  9.000E+00
      21     1     1     2   501   512  3.123666804E+01 -2.047108309E+01  1.455586622E+02  1.502734801E+02  1.907348633E-06  0.00000E+00  9.000E+00
#rwgt            1           1   4.2471483508187358E-002          26      127358           0
</event>
<event>
      5   9999  3.70600E-02  1.62762E+01 -1.00000E+00  1.74103E-01
      21    -1     0     0   502   501  0.000000000E+00  0.000000000E+00  4.959438115E+02  4.959438115E+02  0.000000000E+00  0.00000E+00  9.000E+00
      21    -1     0     0   501   511  0.000000000E+00  0.000000000E+00 -1.322215211E+02  1.322215211E+02  0.000000000E+00  0.00000E+00  9.000E+00
      25     1     1     2     0     0 -1.585409106E+02 -1.088684498E+02  3.097419348E+02  3.854252533E+02  1.250000000E+02  0.00000E+00  9.000E+00
      25     1     1     2     0     0  1.477178908E+02  9.671204483E+01  6.136722009E+01  2.248660281E+02  1.250000000E+02  0.00000E+00  9.000E+00
      21     1     1     2   502   511  1.082301977E+01  1.215640493E+01 -7.386864520E+00  1.787405117E+01  3.153981341E-07  0.00000E+00  9.000E+00
#rwgt            1           1   3.4963483020642755E-002          26      127661           0
</event>
<event>
      5   9999  3.70600E-02  3.98292E+01 -1.00000E+00  1.44953E-01
      21    -1     0     0   502   512  0.000000000E+00  0.000000000E+00  1.771003244E+03  1.771003244E+03  0.000000000E+00  0.00000E+00  9.000E+00
      21    -1     0     0   501   502  0.000000000E+00  0.000000000E+00 -2.408935928E+02  2.408935928E+02  0.000000000E+00  0.00000E+00  9.000E+00
      25     1     1     2     0     0  2.785801794E+02 -2.314895364E+02  1.372434690E+02  4.070074835E+02  1.250000000E+02  0.00000E+00  9.000E+00
      25     1     1     2     0     0 -2.996850667E+02  1.977116008E+02  2.362628459E+02  4.476004342E+02  1.250000000E+02  0.00000E+00  9.000E+00
      21     1     1     2   501   512  2.110488727E+01  3.377793551E+01  1.156603336E+03  1.157288919E+03  2.642899792E-05  0.00000E+00  9.000E+00
#rwgt            1           1   4.6176724122335221E-002          26      128372           0
</event>
<event>
      5   9999  3.70600E-02  3.52474E+01 -1.00000E+00  1.48329E-01
      21    -1     0     0   502   511  0.000000000E+00  0.000000000E+00  1.097269530E+03  1.097269530E+03  0.000000000E+00  0.00000E+00  9.000E+00
      21    -1     0     0   501   502  0.000000000E+00  0.000000000E+00 -1.065643994E+02  1.065643994E+02  0.000000000E+00  0.00000E+00  9.000E+00
      25     1     1     2     0     0  5.404086828E+00  1.107471391E+01  5.052593804E+02  5.206379691E+02  1.250000000E+02  0.00000E+00  9.000E+00
      25     1     1     2     0     0 -4.062700572E+01 -9.762489149E+00 -5.412194174E+01  1.424782242E+02  1.250000000E+02  0.00000E+00  9.000E+00
      21     1     1     2   501   511  3.522291889E+01 -1.312224765E+00  5.395676921E+02  5.407177363E+02  7.629394531E-06  0.00000E+00  9.000E+00
#rwgt            1           1   4.3081034726345432E-002          26      130037           0
</event>
<event>
      5   9999  3.70600E-02  4.04179E+01 -1.00000E+00  1.44558E-01
      21    -1     0     0   502   501  0.000000000E+00  0.000000000E+00  1.306961653E+02  1.306961653E+02  0.000000000E+00  0.00000E+00  9.000E+00
      21    -1     0     0   512   502  0.000000000E+00  0.000000000E+00 -1.151377968E+03  1.151377968E+03  0.000000000E+00  0.00000E+00  9.000E+00
      25     1     1     2     0     0  5.375318405E+01 -8.590095437E+01 -8.748748672E+01  1.831596000E+02  1.250000000E+02  0.00000E+00  9.000E+00
      25     1     1     2     0     0 -8.301680732E+01  5.802174021E+01  3.918377606E+00  1.609306258E+02  1.250000000E+02  0.00000E+00  9.000E+00
      21     1     1     2   512   501  2.926362327E+01  2.787921416E+01 -9.371126936E+02  9.379839075E+02  1.078959322E-05  0.00000E+00  9.000E+00
#rwgt            1           1   5.9672212871016268E-002          26      130565           0
</event>
<event>
      5   9999  3.70600E-02  9.96692E+00 -1.00000E+00  1.95919E-01
      21    -1     0     0   502   501  0.000000000E+00  0.000000000E+00  5.107162521E+02  5.107162521E+02  0.000000000E+00  0.00000E+00  9.000E+00
      21    -1     0     0   511   502  0.000000000E+00  0.000000000E+00 -2.035810256E+02  2.035810256E+02  0.000000000E+00  0.00000E+00  9.000E+00
      25     1     1     2     0     0 -1.489878089E+02 -8.273436184E+01  3.388193076E+02  3.993317731E+02  1.250000000E+02  0.00000E+00  9.000E+00
      25     1     1     2     0     0  1.583384911E+02  8.618462449E+01  5.624999023E+01  2.264683833E+02  1.250000000E+02  0.00000E+00  9.000E+00
      21     1     1     2   511   501 -9.350682144E+00 -3.450262649E+00 -8.793407135E+01  8.849712127E+01  9.536743164E-07  0.00000E+00  9.000E+00
#rwgt            1           1   9.9168277623698356E-002          26      130899           0
</event>
<event>
      5   9999  3.70600E-02  4.05018E+01 -1.00000E+00  1.44503E-01
      21    -1     0     0   502   501  0.000000000E+00  0.000000000E+00  6.100599855E+01  6.100599855E+01  0.000000000E+00  0.00000E+00  9.000E+00
       2    -1     0     0   501     0  0.000000000E+00  0.000000000E+00 -1.573998777E+03  1.573998777E+03  0.000000000E+00  0.00000E+00  9.000E+00
      25     1     1     2     0     0  3.467041049E+01 -2.310646100E+01 -3.569834932E+01  1.365112378E+02  1.250000000E+02  0.00000E+00  9.000E+00
      25     1     1     2     0     0  4.827456818E+00  3.206820254E+01 -3.977297385E+02  4.181693662E+02  1.250000000E+02  0.00000E+00  9.000E+00
       2     1     1     2   502     0 -3.949786730E+01 -8.961741542E+00 -1.079564691E+03  1.080324171E+03  1.525878906E-05  0.00000E+00  9.000E+00
#rwgt            1           1   3.8901905626751776E-002          26      131376           0
</event>
<event>
      5   9999 -3.70600E-02  4.21616E+01 -1.00000E+00  1.43434E-01
      21    -1     0     0   502   511  0.000000000E+00  0.000000000E+00  1.125943969E+03  1.125943969E+03  0.000000000E+00  0.00000E+00  9.000E+00
      21    -1     0     0   501   502  0.000000000E+00  0.000000000E+00 -4.577013965E+01  4.577013965E+01  0.000000000E+00  0.00000E+00  9.000E+00
      25     1     1     2     0     0 -1.148861650E+02 -3.015850606E+01  2.208322529E+02  2.801789612E+02  1.250000000E+02  0.00000E+00  9.000E+00
      25     1     1     2     0     0  1.492358111E+02  5.710598384E+00  7.274434440E+02  7.530623496E+02  1.250000000E+02  0.00000E+00  9.000E+00
      21     1     1     2   501   511 -3.434964613E+01  2.444790768E+01  1.318981327E+02  1.384727980E+02  0.000000000E+00  0.00000E+00  9.000E+00
#rwgt            1           1  -6.5096480626685091E-002          26      131859           0
</event>
<event>
      5   9999  3.70600E-02  2.30271E+01 -1.00000E+00  1.61469E-01
      21    -1     0     0   512   501  0.000000000E+00  0.000000000E+00  4.489856667E+01  4.489856667E+01  0.000000000E+00  0.00000E+00  9.000E+00
      21    -1     0     0   501   502  0.000000000E+00  0.000000000E+00 -1.550787754E+03  1.550787754E+03  0.000000000E+00  0.00000E+00  9.000E+00
      25     1     1     2     0     0  1.827479595E+01  1.929871709E+02 -1.025731801E+03  1.051346158E+03  1.250000000E+02  0.00000E+00  9.000E+00
      25     1     1     2     0     0 -4.129319069E+01 -1.923540298E+02 -4.288090946E+02  4.880649957E+02  1.250000000E+02  0.00000E+00  9.000E+00
      21     1     1     2   512   502  2.301839474E+01 -6.331410369E-01 -5.134829228E+01  5.627516756E+01  9.536743164E-07  0.00000E+00  9.000E+00
#rwgt            1           1   3.2679659172636460E-002          26      132255           0
</event>
<event>
      5   9999  3.70600E-02  2.60079E+01 -1.00000E+00  1.57473E-01
      21    -1     0     0   502   511  0.000000000E+00  0.000000000E+00  3.134918299E+02  3.134918299E+02  0.000000000E+00  0.00000E+00  9.000E+00
      21    -1     0     0   501   502  0.000000000E+00  0.000000000E+00 -1.914605986E+02  1.914605986E+02  0.000000000E+00  0.00000E+00  9.000E+00
      25     1     1     2     0     0 -7.604234409E+01 -1.157481310E+02 -3.332143978E+00  1.865909192E+02  1.250000000E+02  0.00000E+00  9.000E+00
      25     1     1     2     0     0  1.017823953E+02  1.120253045E+02  6.206889178E+00  1.963997208E+02  1.250000000E+02  0.00000E+00  9.000E+00
      21     1     1     2   501   511 -2.574005123E+01  3.722826488E+00  1.191564861E+02  1.219617885E+02  1.907348633E-06  0.00000E+00  9.000E+00
#rwgt            1           1   4.3260242867506439E-002          26      132683           0
</event>
<event>
      5   9999  3.70600E-02  5.49542E+01 -1.00000E+00  1.36772E-01
      21    -1     0     0   502   501  0.000000000E+00  0.000000000E+00  5.654255700E+02  5.654255700E+02  0.000000000E+00  0.00000E+00  9.000E+00
       1    -1     0     0   501     0  0.000000000E+00  0.000000000E+00 -4.371836106E+02  4.371836106E+02  0.000000000E+00  0.00000E+00  9.000E+00
      25     1     1     2     0     0  2.135923690E+02 -2.897709755E+01  4.029371956E+02  4.737560088E+02  1.250000000E+02  0.00000E+00  9.000E+00
      25     1     1     2     0     0 -1.641440494E+02  5.295272884E+01  3.364995525E+01  2.156492057E+02  1.250000000E+02  0.00000E+00  9.000E+00
       1     1     1     2   502     0 -4.944831958E+01 -2.397563129E+01 -3.083451915E+02  3.132039660E+02  3.814697266E-06  0.00000E+00  9.000E+00
#rwgt            1           1   4.2064838491409455E-002          26      132946           0
</event>
<event>
      5   9999  3.70600E-02  8.36970E+01 -1.00000E+00  1.27405E-01
      21    -1     0     0   511   501  0.000000000E+00  0.000000000E+00  8.075174474E+02  8.075174474E+02  0.000000000E+00  0.00000E+00  9.000E+00
      21    -1     0     0   501   502  0.000000000E+00  0.000000000E+00 -6.458438058E+01  6.458438058E+01  0.000000000E+00  0.00000E+00  9.000E+00
      25     1     1     2     0     0  4.203382073E+01  6.799877084E+01  7.097923598E+01  1.644801716E+02  1.250000000E+02  0.00000E+00  9.000E+00
      25     1     1     2     0     0  2.980458639E+01 -2.505195333E+01  4.925741944E+02  5.096766139E+02  1.250000000E+02  0.00000E+00  9.000E+00
      21     1     1     2   511   502 -7.183840712E+01 -4.294681751E+01  1.793796365E+02  1.979450425E+02  3.303624740E-06  0.00000E+00  9.000E+00
#rwgt            1           1   2.0141786359641495E-002          26      133110           0
</event>
<event>
      5   9999  3.70600E-02  2.60335E+01 -1.00000E+00  1.57442E-01
      21    -1     0     0   512   501  0.000000000E+00  0.000000000E+00  5.410747200E+02  5.410747200E+02  0.000000000E+00  0.00000E+00  9.000E+00
      21    -1     0     0   501   502  0.000000000E+00  0.000000000E+00 -1.403608712E+02  1.403608712E+02  0.000000000E+00  0.00000E+00  9.000E+00
      25     1     1     2     0     0 -2.142563484E+02 -7.512732246E+01  1.078887967E+02  2.807398972E+02  1.250000000E+02  0.00000E+00  9.000E+00
      25     1     1     2     0     0  1.889472702E+02  8.122582405E+01  2.309151936E+02  3.335349038E+02  1.250000000E+02  0.00000E+00  9.000E+00
      21     1     1     2   512   502  2.530907818E+01 -6.098501591E+00  6.190985852E+01  6.716079021E+01  0.000000000E+00  0.00000E+00  9.000E+00
#rwgt            1           1   4.0838813573671258E-002          26      133302           0
</event>
<event>
      5   9999  3.70600E-02  6.29308E+01 -1.00000E+00  1.33604E-01
      21    -1     0     0   502   501  0.000000000E+00  0.000000000E+00  1.448674167E+03  1.448674167E+03  0.000000000E+00  0.00000E+00  9.000E+00
      21    -1     0     0   501   511  0.000000000E+00  0.000000000E+00 -9.919293445E+01  9.919293445E+01  0.000000000E+00  0.00000E+00  9.000E+00
      25     1     1     2     0     0  1.130069625E+02 -8.543831205E+01  3.420133987E+02  3.907280943E+02  1.250000000E+02  0.00000E+00  9.000E+00
      25     1     1     2     0     0 -8.565120518E+01  2.876421685E+01  1.062441467E+03  1.073578306E+03  1.250000000E+02  0.00000E+00  9.000E+00
      21     1     1     2   502   511 -2.735575734E+01  5.667409520E+01 -5.497363262E+01  8.356070135E+01  2.939421655E-06  0.00000E+00  9.000E+00
#rwgt            1           1   4.2182257457570795E-002          26      133866           0
</event>
<event>
      5   9999  3.70600E-02  4.83109E+01 -1.00000E+00  1.39930E-01
      21    -1     0     0   502   501  0.000000000E+00  0.000000000E+00  1.077202376E+03  1.077202376E+03  0.000000000E+00  0.00000E+00  9.000E+00
      21    -1     0     0   501   512  0.000000000E+00  0.000000000E+00 -2.937892246E+02  2.937892246E+02  0.000000000E+00  0.00000E+00  9.000E+00
      25     1     1     2     0     0  2.805395590E+01  4.912277340E+01  9.759930496E+01  1.683766481E+02  1.250000000E+02  0.00000E+00  9.000E+00
      25     1     1     2     0     0 -4.794326402E+00 -6.779782205E+00  9.377539222E+02  9.460847582E+02  1.250000000E+02  0.00000E+00  9.000E+00
      21     1     1     2   502   512 -2.325962950E+01 -4.234299120E+01 -2.519400753E+02  2.565301947E+02  6.031565972E-06  0.00000E+00  9.000E+00
#rwgt            2          11   1.2672329894064098E-002          26      134179           0
</event>
<event>
      5   9999  3.70600E-02  4.59664E+01 -1.00000E+00  1.41190E-01
      21    -1     0     0   511   501  0.000000000E+00  0.000000000E+00  9.084702895E+02  9.084702895E+02  0.000000000E+00  0.00000E+00  9.000E+00
      21    -1     0     0   501   502  0.000000000E+00  0.000000000E+00 -1.542493115E+02  1.542493115E+02  0.000000000E+00  0.00000E+00  9.000E+00
      25     1     1     2     0     0  1.363387492E+02 -7.289372527E+01  2.095935786E+02  2.888878985E+02  1.250000000E+02  0.00000E+00  9.000E+00
      25     1     1     2     0     0 -9.070814476E+01  7.843993939E+01 -4.774280417E+01  1.796807362E+02  1.250000000E+02  0.00000E+00  9.000E+00
      21     1     1     2   511   502 -4.563060444E+01 -5.546214124E+00  5.923702036E+02  5.941509662E+02  0.000000000E+00  0.00000E+00  9.000E+00
#rwgt            1           1   3.5489185652766854E-002          26      134409           0
</event>
<event>
      5   9999  3.70600E-02  5.39005E+01 -1.00000E+00  1.37237E-01
      21    -1     0     0   502   501  0.000000000E+00  0.000000000E+00  5.470523119E+02  5.470523119E+02  0.000000000E+00  0.00000E+00  9.000E+00
       2    -1     0     0   501     0  0.000000000E+00  0.000000000E+00 -3.725399177E+02  3.725399177E+02  0.000000000E+00  0.00000E+00  9.000E+00
      25     1     1     2     0     0 -9.845295455E+01 -2.864782312E+01  1.621073897E+02  2.289486576E+02  1.250000000E+02  0.00000E+00  9.000E+00
      25     1     1     2     0     0  5.467611633E+01  6.009384033E+01  3.333687079E+02  3.651854909E+02  1.250000000E+02  0.00000E+00  9.000E+00
       2     1     1     2   502     0  4.377683822E+01 -3.144601721E+01 -3.209637035E+02  3.254580811E+02  6.607249480E-06  0.00000E+00  9.000E+00
#rwgt            1           1   3.4788489434887548E-002          26      134613           0
</event>
<event>
      5   9999  3.70600E-02  7.17148E+01 -1.00000E+00  1.30689E-01
      21    -1     0     0   502   501  0.000000000E+00  0.000000000E+00  6.552691535E+01  6.552691535E+01  0.000000000E+00  0.00000E+00  9.000E+00
      21    -1     0     0   511   502  0.000000000E+00  0.000000000E+00 -8.588126902E+02  8.588126902E+02  0.000000000E+00  0.00000E+00  9.000E+00
      25     1     1     2     0     0  1.628445862E+02 -2.550347815E+01 -3.959078792E+02  4.466954616E+02  1.250000000E+02  0.00000E+00  9.000E+00
      25     1     1     2     0     0 -9.698744325E+01 -2.884041578E+00 -1.427630320E+02  2.131224182E+02  1.250000000E+02  0.00000E+00  9.000E+00
      21     1     1     2   511   501 -6.585714295E+01  2.838751973E+01 -2.546148638E+02  2.645217258E+02  2.697398305E-06  0.00000E+00  9.000E+00
#rwgt            1           1   4.1801103427612084E-002          26      134875           0
</event>
<event>
      5   9999  3.70600E-02  8.73301E+01 -1.00000E+00  1.26532E-01
      21    -1     0     0   502   501  0.000000000E+00  0.000000000E+00  2.703132329E+02  2.703132329E+02  0.000000000E+00  0.00000E+00  9.000E+00
      21    -1     0     0   501   512  0.000000000E+00  0.000000000E+00 -4.207823082E+02  4.207823082E+02  0.000000000E+00  0.00000E+00  9.000E+00
      25     1     1     2     0     0 -2.709914203E+02 -7.234468724E+01 -4.474883231E+01  3.103184842E+02  1.250000000E+02  0.00000E+00  9.000E+00
      25     1     1     2     0     0  1.840099092E+02  6.454928047E+01  1.462002616E+01  2.320883484E+02  1.250000000E+02  0.00000E+00  9.000E+00
      21     1     1     2   502   512  8.698151110E+01  7.795406775E+00 -1.203402691E+02  1.486887084E+02  1.348699152E-06  0.00000E+00  9.000E+00
#rwgt            1           1   3.5079583167722715E-002          26      135183           0
</event>
<event>
      5   9999  3.70600E-02  4.95191E+01 -1.00000E+00  1.39313E-01
      21    -1     0     0   502   501  0.000000000E+00  0.000000000E+00  1.469133862E+02  1.469133862E+02  0.000000000E+00  0.00000E+00  9.000E+00
      -3    -1     0     0     0   502  0.000000000E+00  0.000000000E+00 -3.583802037E+02  3.583802037E+02  0.000000000E+00  0.00000E+00  9.000E+00
      25     1     1     2     0     0 -1.267457934E+02  5.440155946E+01 -7.908613828E+01  2.022464909E+02  1.250000000E+02  0.00000E+00  9.000E+00
      25     1     1     2     0     0  1.759190474E+02 -4.855922013E+01 -9.378073384E+01  2.402609730E+02  1.250000000E+02  0.00000E+00  9.000E+00
      -3     1     1     2     0   501 -4.917325401E+01 -5.842339334E+00 -3.859994544E+01  6.278612607E+01  4.768371582E-07  0.00000E+00  9.000E+00
#rwgt            1           1   3.5012934980488936E-002          26      135411           0
</event>
<event>
      5   9999  3.70600E-02  7.78381E+01 -1.00000E+00  1.28926E-01
      21    -1     0     0   511   501  0.000000000E+00  0.000000000E+00  8.735263503E+01  8.735263503E+01  0.000000000E+00  0.00000E+00  9.000E+00
      21    -1     0     0   501   502  0.000000000E+00  0.000000000E+00 -8.394880359E+02  8.394880359E+02  0.000000000E+00  0.00000E+00  9.000E+00
      25     1     1     2     0     0  9.626644197E+01  1.454913275E+01 -1.709590153E+02  2.330898754E+02  1.250000000E+02  0.00000E+00  9.000E+00
      25     1     1     2     0     0 -3.310183220E+01 -6.003544565E+01 -5.974545961E+02  6.142287688E+02  1.250000000E+02  0.00000E+00  9.000E+00
      21     1     1     2   511   502 -6.316460978E+01  4.548631290E+01  1.627821053E+01  7.952202668E+01  1.283923342E-06  0.00000E+00  9.000E+00
#rwgt            1           1   4.3154612388076788E-002          26      137016           0
</event>
<event>
      5   9999  3.70600E-02  9.25279E+01 -1.00000E+00  1.25362E-01
      21    -1     0     0   502   501  0.000000000E+00  0.000000000E+00  1.642680829E+02  1.642680829E+02  0.000000000E+00  0.00000E+00  9.000E+00
      21    -1     0     0   501   512  0.000000000E+00  0.000000000E+00 -1.155202874E+03  1.155202874E+03  0.000000000E+00  0.00000E+00  9.000E+00
      25     1     1     2     0     0 -5.233500744E+01 -1.000567380E+02 -8.214476993E+01  1.874114913E+02  1.250000000E+02  0.00000E+00  9.000E+00
      25     1     1     2     0     0  7.894148706E+01  1.886767051E+02 -2.227835972E+01  2.407321805E+02  1.250000000E+02  0.00000E+00  9.000E+00
      21     1     1     2   502   512 -2.660647962E+01 -8.861996706E+01 -8.865116619E+02  8.913272856E+02  0.000000000E+00  0.00000E+00  9.000E+00
#rwgt            1           1   8.6550669192323917E-002          26      137431           0
</event>
<event>
      5   9999  3.70600E-02  5.60212E+01 -1.00000E+00  1.36313E-01
       1    -1     0     0   502     0  0.000000000E+00  0.000000000E+00  2.419802709E+03  2.419802709E+03  0.000000000E+00  0.00000E+00  9.000E+00
      21    -1     0     0   501   502  0.000000000E+00  0.000000000E+00 -5.342873272E+01  5.342873272E+01  0.000000000E+00  0.00000E+00  9.000E+00
      25     1     1     2     0     0  2.841753714E+01 -5.016772396E+01  3.950524698E+02  4.183489104E+02  1.250000000E+02  0.00000E+00  9.000E+00
      25     1     1     2     0     0  2.386832770E+01  7.028157783E+01  8.636755021E+01  1.690962772E+02  1.250000000E+02  0.00000E+00  9.000E+00
       1     1     1     2   501     0 -5.228586484E+01 -2.011385387E+01  1.884953957E+03  1.885786255E+03  3.051757812E-05  0.00000E+00  9.000E+00
#rwgt            1           1   4.1256490225054371E-002          26      137530           0
</event>
<event>
      5   9999  3.70600E-02  9.44312E+01 -1.00000E+00  1.24956E-01
      21    -1     0     0   502   511  0.000000000E+00  0.000000000E+00  2.752535397E+02  2.752535397E+02  0.000000000E+00  0.00000E+00  9.000E+00
      21    -1     0     0   501   502  0.000000000E+00  0.000000000E+00 -8.607547353E+02  8.607547353E+02  0.000000000E+00  0.00000E+00  9.000E+00
      25     1     1     2     0     0 -1.001815583E+02 -7.984946275E+01 -1.845584262E+02  2.570974407E+02  1.250000000E+02  0.00000E+00  9.000E+00
      25     1     1     2     0     0  1.079700420E+02 -1.425995447E+01 -6.192480811E+02  6.410569883E+02  1.250000000E+02  0.00000E+00  9.000E+00
      21     1     1     2   501   511 -7.788483682E+00  9.410941722E+01  2.183053118E+02  2.378538460E+02  5.394796609E-06  0.00000E+00  9.000E+00
#rwgt            1           1   1.7721758202318073E-002          26      137774           0
</event>
<event>
      5   9999  3.70600E-02  4.61438E+01 -1.00000E+00  1.41092E-01
       1    -1     0     0   502     0  0.000000000E+00  0.000000000E+00  4.101437726E+02  4.101437726E+02  0.000000000E+00  0.00000E+00  9.000E+00
      21    -1     0     0   501   502  0.000000000E+00  0.000000000E+00 -4.335401998E+02  4.335401998E+02  0.000000000E+00  0.00000E+00  9.000E+00
      25     1     1     2     0     0 -2.281500348E+02  1.652518924E+02 -1.865849669E+02  3.602770825E+02  1.250000000E+02  0.00000E+00  9.000E+00
      25     1     1     2     0     0  1.981861385E+02 -1.301603295E+02 -4.357486660E+01  2.715570398E+02  1.250000000E+02  0.00000E+00  9.000E+00
       1     1     1     2   501     0  2.996389626E+01 -3.509156291E+01  2.067634062E+02  2.118498502E+02  0.000000000E+00  0.00000E+00  9.000E+00
#rwgt            1           1   4.0766168237292219E-002          26      138433           0
</event>
<event>
      5   9999  3.70600E-02  4.14255E+01 -1.00000E+00  1.43901E-01
      21    -1     0     0   502   501  0.000000000E+00  0.000000000E+00  3.608375019E+02  3.608375019E+02  0.000000000E+00  0.00000E+00  9.000E+00
      21    -1     0     0   501   511  0.000000000E+00  0.000000000E+00 -1.456036816E+02  1.456036816E+02  0.000000000E+00  0.00000E+00  9.000E+00
      25     1     1     2     0     0 -2.835895940E+01 -1.325895670E+02  2.082221353E+02  2.781468703E+02  1.250000000E+02  0.00000E+00  9.000E+00
      25     1     1     2     0     0 -1.300258396E+01  1.348905151E+02 -7.188537574E+00  1.845025565E+02  1.250000000E+02  0.00000E+00  9.000E+00
      21     1     1     2   502   511  4.136154337E+01 -2.300948164E+00  1.420022263E+01  4.379175670E+01  9.233911863E-07  0.00000E+00  9.000E+00
#rwgt            1           1   3.9847263181419013E-002          26      138621           0
</event>
<event>
      5   9999  3.70600E-02  2.59047E+01 -1.00000E+00  1.57600E-01
      21    -1     0     0   502   501  0.000000000E+00  0.000000000E+00  7.051279084E+02  7.051279084E+02  0.000000000E+00  0.00000E+00  9.000E+00
       2    -1     0     0   501     0  0.000000000E+00  0.000000000E+00 -3.878358925E+03  3.878358925E+03  0.000000000E+00  0.00000E+00  9.000E+00
      25     1     1     2     0     0  1.421949577E+01 -1.566511887E+02  2.938936731E+02  3.560060113E+02  1.250000000E+02  0.00000E+00  9.000E+00
      25     1     1     2     0     0 -2.878713742E+01  1.780717084E+02  3.484589393E+02  4.118092580E+02  1.250000000E+02  0.00000E+00  9.000E+00
       2     1     1     2   502     0  1.456764165E+01 -2.142051968E+01 -3.815583629E+03  3.815671564E+03  4.315837288E-05  0.00000E+00  9.000E+00
#rwgt            1           1   3.1365584912799359E-002          26      138966           0
</event>
<event>
      5   9999  3.70600E-02  1.19257E+02 -1.00000E+00  1.20481E-01
      21    -1     0     0   502   501  0.000000000E+00  0.000000000E+00  6.235481806E+02  6.235481806E+02  0.000000000E+00  0.00000E+00  9.000E+00
      21    -1     0     0   511   502  0.000000000E+00  0.000000000E+00 -5.511843216E+02  5.511843216E+02  0.000000000E+00  0.00000E+00  9.000E+00
      25     1     1     2     0     0 -1.496589851E+00 -3.228965403E+02  7.154687228E+01  3.535652280E+02  1.250000000E+02  0.00000E+00  9.000E+00
      25     1     1     2     0     0 -1.176724511E+02  3.274864082E+02  3.146026483E+02  4.854832434E+02  1.250000000E+02  0.00000E+00  9.000E+00
      21     1     1     2   511   501  1.191690409E+02 -4.589867967E+00 -3.137856615E+02  3.356840309E+02  3.814697266E-06  0.00000E+00  9.000E+00
#rwgt            1           1   3.7356360770062547E-002          26      139263           0
</event>
<event>
      5   9999  3.70600E-02  1.25493E+02 -1.00000E+00  1.19547E-01
      21    -1     0     0   502   501  0.000000000E+00  0.000000000E+00  6.374854146E+02  6.374854146E+02  0.000000000E+00  0.00000E+00  9.000E+00
      21    -1     0     0   512   502  0.000000000E+00  0.000000000E+00 -1.124830921E+02  1.124830921E+02  0.000000000E+00  0.00000E+00  9.000E+00
      25     1     1     2     0     0 -4.102374818E+01  5.710294202E+01  2.593608076E+02  2.963726074E+02  1.250000000E+02  0.00000E+00  9.000E+00
      25     1     1     2     0     0 -7.842520774E+01 -9.557863724E+01  2.764690798E+02  3.276369045E+02  1.250000000E+02  0.00000E+00  9.000E+00
      21     1     1     2   512   501  1.194489559E+02  3.847569522E+01 -1.082756492E+01  1.259589947E+02  1.192092896E-06  0.00000E+00  9.000E+00
#rwgt            1           1   7.7572490921486853E-002          26      139549           0
</event>
<event>
      5   9999  3.70600E-02  9.15869E+00 -1.00000E+00  2.00270E-01
      21    -1     0     0   502   511  0.000000000E+00  0.000000000E+00  1.140030847E+02  1.140030847E+02  0.000000000E+00  0.00000E+00  9.000E+00
      21    -1     0     0   501   502  0.000000000E+00  0.000000000E+00 -6.668321468E+02  6.668321468E+02  0.000000000E+00  0.00000E+00  9.000E+00
      25     1     1     2     0     0  8.868692301E+01  1.363707340E+02 -2.075924836E+02  2.918595324E+02  1.250000000E+02  0.00000E+00  9.000E+00
      25     1     1     2     0     0 -8.454049031E+01 -1.445370454E+02 -3.904479021E+02  4.428460412E+02  1.250000000E+02  0.00000E+00  9.000E+00
      21     1     1     2   501   511 -4.146432697E+00  8.166311378E+00  4.521132362E+01  4.612965780E+01  4.768371582E-07  0.00000E+00  9.000E+00
#rwgt            1           1   4.1176039410695510E-002          26      139629           0
</event>
<event>
      5   9999  3.70600E-02  2.07381E+01 -1.00000E+00  1.65078E-01
      21    -1     0     0   512   501  0.000000000E+00  0.000000000E+00  2.927185702E+02  2.927185702E+02  0.000000000E+00  0.00000E+00  9.000E+00
      21    -1     0     0   501   502  0.000000000E+00  0.000000000E+00 -1.719521347E+02  1.719521347E+02  0.000000000E+00  0.00000E+00  9.000E+00
      25     1     1     2     0     0 -2.372399619E+01 -6.263936256E+01  1.448134277E+02  2.026880524E+02  1.250000000E+02  0.00000E+00  9.000E+00
      25     1     1     2     0     0  3.615341238E+00  5.756871565E+01 -1.083343911E+02  1.751815287E+02  1.250000000E+02  0.00000E+00  9.000E+00
      21     1     1     2   512   502  2.010865495E+01  5.070646910E+00  8.428739894E+01  8.680112375E+01  9.536743164E-07  0.00000E+00  9.000E+00
#rwgt            1           1   2.7443189796240719E-002          26      140300           0
</event>
<event>
      5   9999  3.70600E-02  1.13573E+02 -1.00000E+00  1.21390E-01
      21    -1     0     0   502   511  0.000000000E+00  0.000000000E+00  4.609234819E+02  4.609234819E+02  0.000000000E+00  0.00000E+00  9.000E+00
      21    -1     0     0   501   502  0.000000000E+00  0.000000000E+00 -4.335340739E+02  4.335340739E+02  0.000000000E+00  0.00000E+00  9.000E+00
      25     1     1     2     0     0  1.488450478E+02 -1.097566286E+02  1.829224181E+00  2.232256971E+02  1.250000000E+02  0.00000E+00  9.000E+00
      25     1     1     2     0     0 -1.021184616E+02  6.240692728E+00 -2.921500300E+02  3.338319435E+02  1.250000000E+02  0.00000E+00  9.000E+00
      21     1     1     2   501   511 -4.672658615E+01  1.035159359E+02  3.177102138E+02  3.373999153E+02  3.814697266E-06  0.00000E+00  9.000E+00
#rwgt            1           1   2.9477627987727746E-002          26      140548           0
</event>
<event>
      5   9999  3.70600E-02  9.72463E+01 -1.00000E+00  1.24374E-01
      21    -1     0     0   502   501  0.000000000E+00  0.000000000E+00  2.940625408E+02  2.940625408E+02  0.000000000E+00  0.00000E+00  9.000E+00
      21    -1     0     0   512   502  0.000000000E+00  0.000000000E+00 -4.074029755E+02  4.074029755E+02  0.000000000E+00  0.00000E+00  9.000E+00
      25     1     1     2     0     0  6.320009878E+01 -1.259470530E+01  2.140281061E+02  2.560974605E+02  1.250000000E+02  0.00000E+00  9.000E+00
      25     1     1     2     0     0 -1.590241222E+02  2.916555263E+01 -2.317737023E+02  3.090038025E+02  1.250000000E+02  0.00000E+00  9.000E+00
      21     1     1     2   512   501  9.582402339E+01 -1.657084733E+01 -9.559483847E+01  1.363642533E+02  1.907348633E-06  0.00000E+00  9.000E+00
#rwgt            1           1   2.7165662663800848E-002          26      140678           0
</event>
<event>
      5   9999  3.70600E-02  1.54735E+02 -1.00000E+00  1.15860E-01
      21    -1     0     0   502   501  0.000000000E+00  0.000000000E+00  1.352272943E+02  1.352272943E+02  0.000000000E+00  0.00000E+00  9.000E+00
       2    -1     0     0   501     0  0.000000000E+00  0.000000000E+00 -1.471898167E+03  1.471898167E+03  0.000000000E+00  0.00000E+00  9.000E+00
      25     1     1     2     0     0  8.744455086E+01 -1.443774113E+02 -2.003918600E+02  2.902986116E+02  1.250000000E+02  0.00000E+00  9.000E+00
      25     1     1     2     0     0 -2.391922028E+02  1.141180686E+02 -1.710873761E+02  3.393106743E+02  1.250000000E+02  0.00000E+00  9.000E+00
       2     1     1     2   502     0  1.517476520E+02  3.025934270E+01 -9.651916362E+02  9.775161750E+02  1.078959322E-05  0.00000E+00  9.000E+00
#rwgt            1           1   6.7371701884632998E-002          26      140808           0
</event>
<event>
      5   9999  3.70600E-02  4.39552E+01 -1.00000E+00  1.42343E-01
      21    -1     0     0   502   501  0.000000000E+00  0.000000000E+00  2.692443147E+02  2.692443147E+02  0.000000000E+00  0.00000E+00  9.000E+00
      21    -1     0     0   511   502  0.000000000E+00  0.000000000E+00 -2.004019933E+02  2.004019933E+02  0.000000000E+00  0.00000E+00  9.000E+00
      25     1     1     2     0     0 -8.903900020E+01 -1.046951720E+02 -2.551368095E+01  1.875232533E+02  1.250000000E+02  0.00000E+00  9.000E+00
      25     1     1     2     0     0  1.329458385E+02  1.026327736E+02  1.086826574E+02  2.358919291E+02  1.250000000E+02  0.00000E+00  9.000E+00
      21     1     1     2   511   501 -4.390683825E+01  2.062398381E+00 -1.432665496E+01  4.623112560E+01  8.760057960E-07  0.00000E+00  9.000E+00
#rwgt            1           1   3.5324974214545390E-002          26      141178           0
</event>
<event>
      5   9999  3.70600E-02  2.08777E+01 -1.00000E+00  1.64841E-01
      21    -1     0     0   502   501  0.000000000E+00  0.000000000E+00  4.217886389E+02  4.217886389E+02  0.000000000E+00  0.00000E+00  9.000E+00
      21    -1     0     0   501   512  0.000000000E+00  0.000000000E+00 -3.258344365E+02  3.258344365E+02  0.000000000E+00  0.00000E+00  9.000E+00
      25     1     1     2     0     0 -3.225796617E+02  9.696394604E+01  9.814591737E+01  3.724476689E+02  1.250000000E+02  0.00000E+00  9.000E+00
      25     1     1     2     0     0  3.186301580E+02 -7.646321402E+01  1.027373242E+01  3.508594452E+02  1.250000000E+02  0.00000E+00  9.000E+00
      21     1     1     2   502   512  3.949503631E+00 -2.050073203E+01 -1.246544745E+01  2.431596127E+01  2.384185791E-07  0.00000E+00  9.000E+00
#rwgt            1           1   4.0881524676411554E-002          26      141611           0
</event>
<event>
      5   9999  3.70600E-02  7.27963E+00 -1.00000E+00  2.13172E-01
      21    -1     0     0   511   501  0.000000000E+00  0.000000000E+00  1.530734438E+03  1.530734438E+03  0.000000000E+00  0.00000E+00  9.000E+00
      21    -1     0     0   501   502  0.000000000E+00  0.000000000E+00 -5.041466133E+01  5.041466133E+01  0.000000000E+00  0.00000E+00  9.000E+00
      25     1     1     2     0     0 -1.363692931E+01  1.204442921E+02  1.182967461E+03  1.195713096E+03  1.250000000E+02  0.00000E+00  9.000E+00
      25     1     1     2     0     0  6.741841839E+00 -1.181095911E+02  1.244650972E+02  2.123955941E+02  1.250000000E+02  0.00000E+00  9.000E+00
      21     1     1     2   511   502  6.895087476E+00 -2.334700962E+00  1.728872178E+02  1.730404090E+02  1.907348633E-06  0.00000E+00  9.000E+00
#rwgt            1           1   3.7302541863485916E-002          26      142109           0
</event>
<event>
      5   9999  3.70600E-02  8.56252E+01 -1.00000E+00  1.26935E-01
      21    -1     0     0   502   501  0.000000000E+00  0.000000000E+00  5.940606974E+01  5.940606974E+01  0.000000000E+00  0.00000E+00  9.000E+00
      21    -1     0     0   512   502  0.000000000E+00  0.000000000E+00 -1.260474097E+03  1.260474097E+03  0.000000000E+00  0.00000E+00  9.000E+00
      25     1     1     2     0     0  6.030938868E+01  5.193098172E+01 -8.649006336E+01  1.715796616E+02  1.250000000E+02  0.00000E+00  9.000E+00
      25     1     1     2     0     0 -1.335056282E+02 -7.501441346E+00 -6.234885649E+02  6.498022891E+02  1.250000000E+02  0.00000E+00  9.000E+00
      21     1     1     2   512   501  7.319623954E+01 -4.442954037E+01 -4.910893992E+02  4.984982162E+02  0.000000000E+00  0.00000E+00  9.000E+00
#rwgt            1           1   4.1914524360064050E-002          26      142885           0
</event>
<event>
      5   9999  3.70600E-02  4.74184E+01 -1.00000E+00  1.40400E-01
      21    -1     0     0   502   501  0.000000000E+00  0.000000000E+00  1.159178716E+02  1.159178716E+02  0.000000000E+00  0.00000E+00  9.000E+00
      21    -1     0     0   501   511  0.000000000E+00  0.000000000E+00 -5.679455949E+02  5.679455949E+02  0.000000000E+00  0.00000E+00  9.000E+00
      25     1     1     2     0     0 -4.390193306E+01  8.675582616E+01 -5.171090058E+00  1.584477620E+02  1.250000000E+02  0.00000E+00  9.000E+00
      25     1     1     2     0     0  4.474756997E+01 -1.341667029E+02 -2.038184900E+02  2.777949352E+02  1.250000000E+02  0.00000E+00  9.000E+00
      21     1     1     2   502   511 -8.456369096E-01  4.741087674E+01 -2.430381432E+02  2.476207693E+02  4.672030912E-06  0.00000E+00  9.000E+00
#rwgt            1           1   3.4408717368818127E-002          26      143309           0
</event>
<event>
      5   9999  3.70600E-02  1.35336E+01 -1.00000E+00  1.81695E-01
       2    -1     0     0   502     0  0.000000000E+00  0.000000000E+00  5.116825723E+02  5.116825723E+02  0.000000000E+00  0.00000E+00  9.000E+00
      21    -1     0     0   501   502  0.000000000E+00  0.000000000E+00 -1.348610432E+02  1.348610432E+02  0.000000000E+00  0.00000E+00  9.000E+00
      25     1     1     2     0     0  5.590439312E+01  1.291519802E+02 -7.011783662E+00  1.883605592E+02  1.250000000E+02  0.00000E+00  9.000E+00
      25     1     1     2     0     0 -6.620611266E+01 -1.379288019E+02  2.276942943E+02  3.014586131E+02  1.250000000E+02  0.00000E+00  9.000E+00
       2     1     1     2   501     0  1.030171954E+01  8.776821691E+00  1.561390184E+02  1.567244432E+02  1.907348633E-06  0.00000E+00  9.000E+00
#rwgt            1           1   4.6948511965152338E-002          26      143442           0
</event>
<event>
      5   9999  3.70600E-02  1.59799E+02 -1.00000E+00  1.15313E-01
      21    -1     0     0   502   501  0.000000000E+00  0.000000000E+00  3.001181094E+02  3.001181094E+02  0.000000000E+00  0.00000E+00  9.000E+00
      21    -1     0     0   501   511  0.000000000E+00  0.000000000E+00 -5.775159307E+02  5.775159307E+02  0.000000000E+00  0.00000E+00  9.000E+00
      25     1     1     2     0     0  1.009709098E+02  4.533848270E+01 -1.041119316E+02  1.967612689E+02  1.250000000E+02  0.00000E+00  9.000E+00
      25     1     1     2     0     0  3.315748893E+01 -1.322025712E+02  2.014625319E+02  2.734759417E+02  1.250000000E+02  0.00000E+00  9.000E+00
      21     1     1     2   502   511 -1.341283987E+02  8.686408853E+01 -3.747484216E+02  4.073968295E+02  5.394796609E-06  0.00000E+00  9.000E+00
#rwgt            1           1   3.7825802570809142E-002          26      144097           0
</event>
<event>
      5   9999  3.70600E-02  7.20451E+01 -1.00000E+00  1.30588E-01
      -2    -1     0     0     0   501  0.000000000E+00  0.000000000E+00  1.081075216E+03  1.081075216E+03  0.000000000E+00  0.00000E+00  9.000E+00
      21    -1     0     0   501   502  0.000000000E+00  0.000000000E+00 -2.020166133E+02  2.020166133E+02  0.000000000E+00  0.00000E+00  9.000E+00
      25     1     1     2     0     0 -2.570683680E+02  1.905102450E+02  2.851063583E+02  4.464178926E+02  1.250000000E+02  0.00000E+00  9.000E+00
      25     1     1     2     0     0  1.970115285E+02 -2.303056177E+02  1.076470161E+02  3.450610091E+02  1.250000000E+02  0.00000E+00  9.000E+00
      -2     1     1     2     0   502  6.005683951E+01  3.979537264E+01  4.863052284E+02  4.916129278E+02  5.394796609E-06  0.00000E+00  9.000E+00
#rwgt            1           1   2.4774907448915640E-002          26      144457           0
</event>
<event>
      5   9999  3.70600E-02  2.28459E+01 -1.00000E+00  1.61736E-01
      21    -1     0     0   511   501  0.000000000E+00  0.000000000E+00  3.549769329E+02  3.549769329E+02  0.000000000E+00  0.00000E+00  9.000E+00
      21    -1     0     0   501   502  0.000000000E+00  0.000000000E+00 -3.258977574E+02  3.258977574E+02  0.000000000E+00  0.00000E+00  9.000E+00
      25     1     1     2     0     0  2.170759521E+02  2.030112575E+02  7.699180697E+01  3.314940090E+02  1.250000000E+02  0.00000E+00  9.000E+00
      25     1     1     2     0     0 -2.292201859E+02 -1.836604434E+02 -5.794107463E+01  3.244306093E+02  1.250000000E+02  0.00000E+00  9.000E+00
      21     1     1     2   511   502  1.214423384E+01 -1.935081413E+01  1.002844317E+01  2.495007206E+01  3.153981341E-07  0.00000E+00  9.000E+00
#rwgt            1           1   2.9196204805562807E-002          26      144790           0
</event>
<event>
      5   9999 -3.70600E-02  3.65120E+01 -1.00000E+00  1.47339E-01
      21    -1     0     0   502   501  0.000000000E+00  0.000000000E+00  8.393479694E+02  8.393479694E+02  0.000000000E+00  0.00000E+00  9.000E+00
       4    -1     0     0   501     0  0.000000000E+00  0.000000000E+00 -1.158312757E+02  1.158312757E+02  0.000000000E+00  0.00000E+00  9.000E+00
      25     1     1     2     0     0 -6.649426054E+01  1.833642318E+02  5.078314890E+02  5.581771667E+02  1.250000000E+02  0.00000E+00  9.000E+00
      25     1     1     2     0     0  9.480505799E+01 -1.603072318E+02  2.574977503E+02  3.414915797E+02  1.250000000E+02  0.00000E+00  9.000E+00
       4     1     1     2   502     0 -2.831079745E+01 -2.305699995E+01 -4.181254558E+01  5.551049870E+01  8.259061849E-07  0.00000E+00  9.000E+00
#rwgt            1           1  -8.5224799649067692E-002          26      145073           0
</event>
<event>
      5   9999  3.70600E-02  1.13031E+02 -1.00000E+00  1.21480E-01
      21    -1     0     0   502   501  0.000000000E+00  0.000000000E+00  1.540176467E+03  1.540176467E+03  0.000000000E+00  0.00000E+00  9.000E+00
      21    -1     0     0   511   502  0.000000000E+00  0.000000000E+00 -2.939387326E+02  2.939387326E+02  0.000000000E+00  0.00000E+00  9.000E+00
      25     1     1     2     0     0 -3.050630973E+01 -1.070746906E+02  4.843581504E+02  5.124679913E+02  1.250000000E+02  0.00000E+00  9.000E+00
      25     1     1     2     0     0  1.012950734E+01  2.182537697E+02  1.014303912E+03  1.045071643E+03  1.250000000E+02  0.00000E+00  9.000E+00
      21     1     1     2   511   501  2.037680239E+01 -1.111790791E+02 -2.524243278E+02  2.765755647E+02  0.000000000E+00  0.00000E+00  9.000E+00
#rwgt            2          11   9.7052218291031368E-003          26      145328           0
</event>
<event>
      5   9999  3.70600E-02  3.14091E+01 -1.00000E+00  1.51665E-01
      21    -1     0     0   502   501  0.000000000E+00  0.000000000E+00  8.018521621E+02  8.018521621E+02  0.000000000E+00  0.00000E+00  9.000E+00
      21    -1     0     0   501   512  0.000000000E+00  0.000000000E+00 -9.695330422E+01  9.695330422E+01  0.000000000E+00  0.00000E+00  9.000E+00
      25     1     1     2     0     0  6.720034848E+01 -1.265834339E+02  3.883276450E+02  4.323917349E+02  1.250000000E+02  0.00000E+00  9.000E+00
      25     1     1     2     0     0 -9.809267180E+01  1.322573703E+02  3.586126584E+02  4.139350468E+02  1.250000000E+02  0.00000E+00  9.000E+00
      21     1     1     2   502   512  3.089232333E+01 -5.673936442E+00 -4.204144548E+01  5.247868456E+01  2.132480600E-06  0.00000E+00  9.000E+00
#rwgt            1           1   3.7055315487915991E-002          26      145408           0
</event>
<event>
      5   9999  3.70600E-02  1.28340E+02 -1.00000E+00  1.19141E-01
      21    -1     0     0   502   501  0.000000000E+00  0.000000000E+00  1.157667696E+03  1.157667696E+03  0.000000000E+00  0.00000E+00  9.000E+00
      21    -1     0     0   501   511  0.000000000E+00  0.000000000E+00 -7.640368466E+01  7.640368466E+01  0.000000000E+00  0.00000E+00  9.000E+00
      25     1     1     2     0     0 -7.293103692E+01  1.395412773E+02  4.414302386E+02  4.850529453E+02  1.250000000E+02  0.00000E+00  9.000E+00
      25     1     1     2     0     0  1.289149811E+02 -2.405522380E+01  5.795831831E+02  6.072391558E+02  1.250000000E+02  0.00000E+00  9.000E+00
      21     1     1     2   502   511 -5.598394417E+01 -1.154860535E+02  6.025058964E+01  1.417792796E+02  9.536743164E-07  0.00000E+00  9.000E+00
#rwgt            1           1   4.1333601115435978E-002          26      145908           0
</event>
<event>
      5   9999  3.70600E-02  5.90545E+01 -1.00000E+00  1.35071E-01
      21    -1     0     0   502   501  0.000000000E+00  0.000000000E+00  1.004621988E+03  1.004621988E+03  0.000000000E+00  0.00000E+00  9.000E+00
      21    -1     0     0   512   502  0.000000000E+00  0.000000000E+00 -1.252664606E+02  1.252664606E+02  0.000000000E+00  0.00000E+00  9.000E+00
      25     1     1     2     0     0  7.712550771E+00  1.370092438E+02  6.474045743E+02  6.734899399E+02  1.250000000E+02  0.00000E+00  9.000E+00
      25     1     1     2     0     0 -5.091345193E+01 -1.772723769E+02  2.952133694E+02  3.698562000E+02  1.250000000E+02  0.00000E+00  9.000E+00
      21     1     1     2   512   501  4.320090116E+01  4.026313313E+01 -6.326241668E+01  8.654230823E+01  1.507891493E-06  0.00000E+00  9.000E+00
#rwgt            1           1   4.6311048337231389E-002          26      146143           0
</event>
<event>
      5   9999  3.70600E-02  1.77440E+01 -1.00000E+00  1.70772E-01
      21    -1     0     0   511   501  0.000000000E+00  0.000000000E+00  5.742167805E+02  5.742167805E+02  0.000000000E+00  0.00000E+00  9.000E+00
      21    -1     0     0   501   502  0.000000000E+00  0.000000000E+00 -1.469228963E+02  1.469228963E+02  0.000000000E+00  0.00000E+00  9.000E+00
      25     1     1     2     0     0 -1.311406760E+02 -1.661100725E+02  2.957427551E+01  2.475683155E+02  1.250000000E+02  0.00000E+00  9.000E+00
      25     1     1     2     0     0  1.136942526E+02  1.693460206E+02  3.735811499E+02  4.436128192E+02  1.250000000E+02  0.00000E+00  9.000E+00
      21     1     1     2   511   502  1.744642339E+01 -3.235948089E+00  2.413845882E+01  2.995854208E+01  4.768371582E-07  0.00000E+00  9.000E+00
#rwgt            1           1   3.0014543503908548E-002          26      146472           0
</event>
<event>
      5   9999  3.70600E-02  6.27553E+01 -1.00000E+00  1.33668E-01
      21    -1     0     0   502   501  0.000000000E+00  0.000000000E+00  1.680668183E+02  1.680668183E+02  0.000000000E+00  0.00000E+00  9.000E+00
      21    -1     0     0   501   512  0.000000000E+00  0.000000000E+00 -6.024209699E+02  6.024209699E+02  0.000000000E+00  0.00000E+00  9.000E+00
      25     1     1     2     0     0 -1.705285989E+02  6.140661303E+01  1.242217745E+00  2.201756532E+02  1.250000000E+02  0.00000E+00  9.000E+00
      25     1     1     2     0     0  1.437857222E+02 -4.634694294E+00 -1.127748385E+02  2.214474622E+02  1.250000000E+02  0.00000E+00  9.000E+00
      21     1     1     2   502   512  2.674287666E+01 -5.677191874E+01 -3.228215309E+02  3.288646728E+02  5.394796609E-06  0.00000E+00  9.000E+00
#rwgt            1           1   3.1942233332675068E-002          26      148156           0
</event>
<event>
      5   9999  3.70600E-02  1.28233E+01 -1.00000E+00  1.84044E-01
      21    -1     0     0   502   501  0.000000000E+00  0.000000000E+00  6.516957823E+02  6.516957823E+02  0.000000000E+00  0.00000E+00  9.000E+00
      21    -1     0     0   501   511  0.000000000E+00  0.000000000E+00 -1.723327780E+02  1.723327780E+02  0.000000000E+00  0.00000E+00  9.000E+00
      25     1     1     2     0     0 -8.922739441E+01  2.457937096E+02  4.368665572E+02  5.242646892E+02  1.250000000E+02  0.00000E+00  9.000E+00
      25     1     1     2     0     0  9.655820295E+01 -2.352725263E+02  4.429025792E+01  2.868157512E+02  1.250000000E+02  0.00000E+00  9.000E+00
      21     1     1     2   502   511 -7.330808545E+00 -1.052118330E+01 -1.793810758E+00  1.294811990E+01  2.942743548E-07  0.00000E+00  9.000E+00
#rwgt            1           1   3.2523256982385972E-002          26      149099           0
</event>
<event>
      5   9999  3.70600E-02  7.19137E+01 -1.00000E+00  1.30628E-01
      21    -1     0     0   502   501  0.000000000E+00  0.000000000E+00  3.480913437E+01  3.480913437E+01  0.000000000E+00  0.00000E+00  9.000E+00
      21    -1     0     0   501   512  0.000000000E+00  0.000000000E+00 -3.112906402E+03  3.112906402E+03  0.000000000E+00  0.00000E+00  9.000E+00
      25     1     1     2     0     0  4.234468723E+01 -6.769323212E+01 -1.559547801E+02  2.152262522E+02  1.250000000E+02  0.00000E+00  9.000E+00
      25     1     1     2     0     0  1.675861763E+01  1.086611907E+02 -2.341514427E+03  2.347424741E+03  1.250000000E+02  0.00000E+00  9.000E+00
      21     1     1     2   502   512 -5.910330485E+01 -4.096795859E+01 -5.806280609E+02  5.850645429E+02  1.078959322E-05  0.00000E+00  9.000E+00
#rwgt            1           1   3.6955435718262993E-002          26      149632           0
</event>
<event>
      5   9999  3.70600E-02  3.19918E+01 -1.00000E+00  1.51123E-01
      21    -1     0     0   511   501  0.000000000E+00  0.000000000E+00  1.857632548E+02  1.857632548E+02  0.000000000E+00  0.00000E+00  9.000E+00
      21    -1     0     0   501   502  0.000000000E+00  0.000000000E+00 -3.288358256E+02  3.288358256E+02  0.000000000E+00  0.00000E+00  9.000E+00
      25     1     1     2     0     0  3.762985165E+01 -1.783711878E+02 -3.349058641E+01  2.235596246E+02  1.250000000E+02  0.00000E+00  9.000E+00
      25     1     1     2     0     0 -1.288612062E+01  1.986498782E+02 -1.088508900E+02  2.590392682E+02  1.250000000E+02  0.00000E+00  9.000E+00
      21     1     1     2   511   502 -2.474373103E+01 -2.027869037E+01 -7.310944612E-01  3.200018761E+01  7.628754220E-07  0.00000E+00  9.000E+00
#rwgt            1           1   3.7541507591836505E-002          26      150062           0
</event>
<event>
      5   9999  3.70600E-02  1.45752E+01 -1.00000E+00  1.78563E-01
      21    -1     0     0   502   501  0.000000000E+00  0.000000000E+00  8.174951070E+02  8.174951070E+02  0.000000000E+00  0.00000E+00  9.000E+00
       2    -1     0     0   501     0  0.000000000E+00  0.000000000E+00 -1.170800229E+02  1.170800229E+02  0.000000000E+00  0.00000E+00  9.000E+00
      25     1     1     2     0     0 -8.110889517E+01  2.079483610E+02  6.053801837E+02  6.572148359E+02  1.250000000E+02  0.00000E+00  9.000E+00
      25     1     1     2     0     0  7.040129386E+01 -1.980597931E+02  9.606234030E+01  2.627489240E+02  1.250000000E+02  0.00000E+00  9.000E+00
       2     1     1     2   502     0  1.070760131E+01 -9.888567835E+00 -1.027439957E+00  1.461136997E+01  3.545098678E-07  0.00000E+00  9.000E+00
#rwgt            1           1   1.8797447226799685E-002          26      150356           0
</event>
<event>
      5   9999  3.70600E-02  5.93482E+01 -1.00000E+00  1.34955E-01
      21    -1     0     0   511   501  0.000000000E+00  0.000000000E+00  1.231124428E+03  1.231124428E+03  0.000000000E+00  0.00000E+00  9.000E+00
      21    -1     0     0   501   502  0.000000000E+00  0.000000000E+00 -8.768055944E+01  8.768055944E+01  0.000000000E+00  0.00000E+00  9.000E+00
      25     1     1     2     0     0 -2.202779268E+02  1.206100795E+00  2.917595932E+02  3.863579687E+02  1.250000000E+02  0.00000E+00  9.000E+00
      25     1     1     2     0     0  2.612294330E+02 -4.416170509E+01  5.322008900E+02  6.074980330E+02  1.250000000E+02  0.00000E+00  9.000E+00
      21     1     1     2   511   502 -4.095150612E+01  4.295560430E+01  3.194833856E+02  3.249489859E+02  6.607249480E-06  0.00000E+00  9.000E+00
#rwgt            1           1   7.7288354788773272E-002          26      150711           0
</event>
<event>
      5   9999  3.70600E-02  6.02169E+01 -1.00000E+00  1.34618E-01
      21    -1     0     0   502   501  0.000000000E+00  0.000000000E+00  1.175735644E+02  1.175735644E+02  0.000000000E+00  0.00000E+00  9.000E+00
       2    -1     0     0   501     0  0.000000000E+00  0.000000000E+00 -1.264014924E+03  1.264014924E+03  0.000000000E+00  0.00000E+00  9.000E+00
      25     1     1     2     0     0 -1.184786085E+02 -9.129078611E+01 -2.128543366E+02  2.886228628E+02  1.250000000E+02  0.00000E+00  9.000E+00
      25     1     1     2     0     0  7.747827129E+01  4.718814633E+01  2.966891445E+00  1.544778499E+02  1.250000000E+02  0.00000E+00  9.000E+00
       2     1     1     2   502     0  4.100033724E+01  4.410263977E+01 -9.365539149E+02  9.384877762E+02  0.000000000E+00  0.00000E+00  9.000E+00
#rwgt            1           1   3.5033954273905189E-002          26      151216           0
</event>
<event>
      5   9999  3.70600E-02  9.09673E+01 -1.00000E+00  1.25704E-01
       2    -1     0     0   502     0  0.000000000E+00  0.000000000E+00  8.573710597E+02  8.573710597E+02  0.000000000E+00  0.00000E+00  9.000E+00
      21    -1     0     0   501   502  0.000000000E+00  0.000000000E+00 -9.347427011E+01  9.347427011E+01  0.000000000E+00  0.00000E+00  9.000E+00
      25     1     1     2     0     0  8.142730097E+01 -2.114660605E+01  3.480908250E+02  3.793017358E+02  1.250000000E+02  0.00000E+00  9.000E+00
      25     1     1     2     0     0 -1.522701332E+02 -3.591781242E+01  6.714359630E+01  2.112097186E+02  1.250000000E+02  0.00000E+00  9.000E+00
       2     1     1     2   501     0  7.084283223E+01  5.706441847E+01  3.486623682E+02  3.603338754E+02  7.629394531E-06  0.00000E+00  9.000E+00
#rwgt            1           1   3.1105053250293446E-002          26      151553           0
</event>
<event>
      5   9999  3.70600E-02  9.86677E+01 -1.00000E+00  1.24089E-01
      21    -1     0     0   511   501  0.000000000E+00  0.000000000E+00  8.907804797E+02  8.907804797E+02  0.000000000E+00  0.00000E+00  9.000E+00
      21    -1     0     0   501   502  0.000000000E+00  0.000000000E+00 -1.328839473E+03  1.328839473E+03  0.000000000E+00  0.00000E+00  9.000E+00
      25     1     1     2     0     0  3.137722260E+01  7.344847668E+01 -2.002055906E+02  2.491716021E+02  1.250000000E+02  0.00000E+00  9.000E+00
      25     1     1     2     0     0 -1.299499953E+02 -6.912088235E+01 -1.092848870E+03  1.109778514E+03  1.250000000E+02  0.00000E+00  9.000E+00
      21     1     1     2   511   502  9.857277265E+01 -4.327594333E+00  8.549954669E+02  8.606698369E+02  1.525878906E-05  0.00000E+00  9.000E+00
#rwgt            1           1   3.3510988909018956E-002          26      151698           0
</event>
<event>
      5   9999  3.70600E-02  1.21685E+02 -1.00000E+00  1.20110E-01
      -2    -1     0     0     0   501  0.000000000E+00  0.000000000E+00  7.323445482E+02  7.323445482E+02  0.000000000E+00  0.00000E+00  9.000E+00
      21    -1     0     0   501   502  0.000000000E+00  0.000000000E+00 -1.115429492E+02  1.115429492E+02  0.000000000E+00  0.00000E+00  9.000E+00
      25     1     1     2     0     0 -8.441479809E+01 -1.104435060E+02  9.516617894E+01  2.097742304E+02  1.250000000E+02  0.00000E+00  9.000E+00
      25     1     1     2     0     0 -3.008663451E+01  1.516340490E+02  1.818589740E+02  2.694360347E+02  1.250000000E+02  0.00000E+00  9.000E+00
      -2     1     1     2     0   502  1.145014326E+02 -4.119054301E+01  3.437764461E+02  3.646772323E+02  0.000000000E+00  0.00000E+00  9.000E+00
#rwgt            1           1   4.0526216984730815E-002          26      152428           0
</event>
<event>
      5   9999  3.70600E-02  9.66638E+01 -1.00000E+00  1.24493E-01
      21    -1     0     0   502   511  0.000000000E+00  0.000000000E+00  3.072865133E+02  3.072865133E+02  0.000000000E+00  0.00000E+00  9.000E+00
      21    -1     0     0   501   502  0.000000000E+00  0.000000000E+00 -4.360064966E+02  4.360064966E+02  0.000000000E+00  0.00000E+00  9.000E+00
      25     1     1     2     0     0 -8.290454258E+01 -5.928319330E+00 -3.438799968E+02  3.752156184E+02  1.250000000E+02  0.00000E+00  9.000E+00
      25     1     1     2     0     0  1.007366329E+02 -8.907645689E+01  1.977864338E+02  2.698647028E+02  1.250000000E+02  0.00000E+00  9.000E+00
      21     1     1     2   501   511 -1.783209037E+01  9.500477622E+01  1.737357964E+01  9.821268869E+01  7.152557373E-07  0.00000E+00  9.000E+00
#rwgt            1           1   3.9823299219675347E-002          26      152724           0
</event>
<event>
      5   9999  3.70600E-02  1.06441E+01 -1.00000E+00  1.92670E-01
      21    -1     0     0   502   512  0.000000000E+00  0.000000000E+00  1.221242348E+02  1.221242348E+02  0.000000000E+00  0.00000E+00  9.000E+00
      21    -1     0     0   501   502  0.000000000E+00  0.000000000E+00 -2.228175217E+02  2.228175217E+02  0.000000000E+00  0.00000E+00  9.000E+00
      25     1     1     2     0     0  4.577969076E+01 -4.646148682E+01 -1.313080819E+02  1.926687889E+02  1.250000000E+02  0.00000E+00  9.000E+00
      25     1     1     2     0     0 -4.123127398E+01  3.683808977E+01  2.171121911E+01  1.383959531E+02  1.250000000E+02  0.00000E+00  9.000E+00
      21     1     1     2   501   512 -4.548416774E+00  9.623397051E+00  8.903575883E+00  1.387701443E+01  1.192092896E-07  0.00000E+00  9.000E+00
#rwgt            1           1   4.4939820403559025E-002          26      152844           0
</event>
<event>
      5   9999  3.70600E-02  2.91949E+01 -1.00000E+00  1.53862E-01
      21    -1     0     0   502   511  0.000000000E+00  0.000000000E+00  1.687823003E+02  1.687823003E+02  0.000000000E+00  0.00000E+00  9.000E+00
      21    -1     0     0   501   502  0.000000000E+00  0.000000000E+00 -6.327471679E+02  6.327471679E+02  0.000000000E+00  0.00000E+00  9.000E+00
      25     1     1     2     0     0  1.042723275E+02  8.771248524E+01 -2.477704575E+02  3.091624135E+02  1.250000000E+02  0.00000E+00  9.000E+00
      25     1     1     2     0     0 -1.334671310E+02 -8.762167232E+01 -3.231493690E+02  3.814990789E+02  1.250000000E+02  0.00000E+00  9.000E+00
      21     1     1     2   501   511  2.919480345E+01 -9.081292819E-02  1.069549589E+02  1.108679757E+02  1.907348633E-06  0.00000E+00  9.000E+00
#rwgt            1           1   2.2379032877464275E-002          26      153404           0
</event>
<event>
      5   9999  3.70600E-02  6.33843E+01 -1.00000E+00  1.33440E-01
      21    -1     0     0   502   501  0.000000000E+00  0.000000000E+00  9.977239086E+01  9.977239086E+01  0.000000000E+00  0.00000E+00  9.000E+00
      21    -1     0     0   501   512  0.000000000E+00  0.000000000E+00 -5.781025922E+02  5.781025922E+02  0.000000000E+00  0.00000E+00  9.000E+00
      25     1     1     2     0     0 -3.773812708E+01 -6.983940323E+01 -2.158939949E+02  2.617955796E+02  1.250000000E+02  0.00000E+00  9.000E+00
      25     1     1     2     0     0 -1.557090497E+01  3.555065679E+01  1.477151498E+01  1.317175005E+02  1.250000000E+02  0.00000E+00  9.000E+00
      21     1     1     2   502   512  5.330903204E+01  3.428874644E+01 -2.772077214E+02  2.843619029E+02  0.000000000E+00  0.00000E+00  9.000E+00
#rwgt            1           1   3.7793850467450457E-002          26      153887           0
</event>
<event>
      5   9999  3.70600E-02  2.14768E+01 -1.00000E+00  1.63853E-01
      21    -1     0     0   502   501  0.000000000E+00  0.000000000E+00  3.371122751E+03  3.371122751E+03  0.000000000E+00  0.00000E+00  9.000E+00
      21    -1     0     0   511   502  0.000000000E+00  0.000000000E+00 -7.558554987E+01  7.558554987E+01  0.000000000E+00  0.00000E+00  9.000E+00
      25     1     1     2     0     0  2.078456727E+01  1.423735056E+02  2.994424227E+03  3.000483905E+03  1.250000000E+02  0.00000E+00  9.000E+00
      25     1     1     2     0     0 -6.283692269E+00 -1.265312680E+02  3.500979669E+02  3.927381227E+02  1.250000000E+02  0.00000E+00  9.000E+00
      21     1     1     2   511   501 -1.450087501E+01 -1.584223759E+01 -4.898499291E+01  5.348627299E+01  5.135693366E-06  0.00000E+00  9.000E+00
#rwgt            1           1   2.3365329224688043E-002          26      154284           0
</event>
<event>
      5   9999  3.70600E-02  2.34922E+01 -1.00000E+00  1.60798E-01
      21    -1     0     0   502   512  0.000000000E+00  0.000000000E+00  6.451820046E+02  6.451820046E+02  0.000000000E+00  0.00000E+00  9.000E+00
      21    -1     0     0   501   502  0.000000000E+00  0.000000000E+00 -1.202887587E+02  1.202887587E+02  0.000000000E+00  0.00000E+00  9.000E+00
      25     1     1     2     0     0  1.980796057E+01 -2.433671113E+01 -7.330466861E+01  1.482673438E+02  1.250000000E+02  0.00000E+00  9.000E+00
      25     1     1     2     0     0  3.578809916E+00  2.656013839E+01  4.828165773E+02  4.994547989E+02  1.250000000E+02  0.00000E+00  9.000E+00
      21     1     1     2   501   512 -2.338677049E+01 -2.223427256E+00  1.153813373E+02  1.177486206E+02  1.348699152E-06  0.00000E+00  9.000E+00
#rwgt            1           1   2.9858421424873875E-002          26      155218           0
</event>
<event>
      5   9999  3.70600E-02  1.25128E+01 -1.00000E+00  1.85133E-01
      21    -1     0     0   502   501  0.000000000E+00  0.000000000E+00  4.455230132E+02  4.455230132E+02  0.000000000E+00  0.00000E+00  9.000E+00
      21    -1     0     0   501   511  0.000000000E+00  0.000000000E+00 -3.602232682E+02  3.602232682E+02  0.000000000E+00  0.00000E+00  9.000E+00
      25     1     1     2     0     0  3.255033065E+01 -1.094959179E+02  6.191871016E+01  1.802992145E+02  1.250000000E+02  0.00000E+00  9.000E+00
      25     1     1     2     0     0 -2.753831314E+01  1.209610468E+02  3.003616619E+02  3.481839477E+02  1.250000000E+02  0.00000E+00  9.000E+00
      21     1     1     2   502   511 -5.012017508E+00 -1.146512886E+01 -2.769806271E+02  2.772631192E+02  3.814697266E-06  0.00000E+00  9.000E+00
#rwgt            1           1   4.1615938796094112E-002          26      155723           0
</event>
<event>
      5   9999  3.70600E-02  3.72096E+01 -1.00000E+00  1.46813E-01
      21    -1     0     0   502   512  0.000000000E+00  0.000000000E+00  1.674714273E+02  1.674714273E+02  0.000000000E+00  0.00000E+00  9.000E+00
      21    -1     0     0   501   502  0.000000000E+00  0.000000000E+00 -3.136153222E+02  3.136153222E+02  0.000000000E+00  0.00000E+00  9.000E+00
      25     1     1     2     0     0 -1.614206490E+01  3.081204345E+01 -2.468764262E+02  2.788958911E+02  1.250000000E+02  0.00000E+00  9.000E+00
      25     1     1     2     0     0  3.363086105E+01  2.031463440E+00  1.022196415E+02  1.649515588E+02  1.250000000E+02  0.00000E+00  9.000E+00
      21     1     1     2   501   512 -1.748879615E+01 -3.284350689E+01 -1.487110206E+00  3.723929957E+01  2.858538343E-07  0.00000E+00  9.000E+00
#rwgt            1           1   4.9582347166632942E-002          26      156278           0
</event>
<event>
      5   9999  3.70600E-02  8.46148E+01 -1.00000E+00  1.27180E-01
       2    -1     0     0   502     0  0.000000000E+00  0.000000000E+00  5.144608102E+02  5.144608102E+02  0.000000000E+00  0.00000E+00  9.000E+00
      21    -1     0     0   501   502  0.000000000E+00  0.000000000E+00 -9.037932534E+02  9.037932534E+02  0.000000000E+00  0.00000E+00  9.000E+00
      25     1     1     2     0     0  2.588031991E+02  2.110576786E+02 -1.371390613E+02  3.820426176E+02  1.250000000E+02  0.00000E+00  9.000E+00
      25     1     1     2     0     0 -3.433110834E+02 -2.153097150E+02 -5.682346705E+02  7.090390780E+02  1.250000000E+02  0.00000E+00  9.000E+00
       2     1     1     2   501     0  8.450788430E+01  4.252036374E+00  3.160412886E+02  3.271723680E+02  5.394796609E-06  0.00000E+00  9.000E+00
#rwgt            1           1   2.8999327050300148E-002          26      156810           0
</event>
<event>
      5   9999  3.70600E-02  5.22349E+01 -1.00000E+00  1.37998E-01
      21    -1     0     0   502   501  0.000000000E+00  0.000000000E+00  2.310675201E+02  2.310675201E+02  0.000000000E+00  0.00000E+00  9.000E+00
      21    -1     0     0   501   511  0.000000000E+00  0.000000000E+00 -3.908837784E+02  3.908837784E+02  0.000000000E+00  0.00000E+00  9.000E+00
      25     1     1     2     0     0 -1.277678818E+02  9.924186256E+01  7.034591364E+01  2.162108380E+02  1.250000000E+02  0.00000E+00  9.000E+00
      25     1     1     2     0     0  7.878163321E+01 -1.173756674E+02 -2.066623727E+01  1.898306782E+02  1.250000000E+02  0.00000E+00  9.000E+00
      21     1     1     2   502   511  4.898624862E+01  1.813380483E+01 -2.094959347E+02  2.159097823E+02  3.814697266E-06  0.00000E+00  9.000E+00
#rwgt            1           1   5.5578894037076512E-002          26      157165           0
</event>
<event>
      5   9999  3.70600E-02  1.39439E+02 -1.00000E+00  1.17663E-01
      21    -1     0     0   502   512  0.000000000E+00  0.000000000E+00  7.389183655E+02  7.389183655E+02  0.000000000E+00  0.00000E+00  9.000E+00
      21    -1     0     0   501   502  0.000000000E+00  0.000000000E+00 -4.463955742E+02  4.463955742E+02  0.000000000E+00  0.00000E+00  9.000E+00
      25     1     1     2     0     0 -5.040335687E+01 -2.801051495E+02 -1.419801656E+02  3.417349274E+02  1.250000000E+02  0.00000E+00  9.000E+00
      25     1     1     2     0     0  1.831274505E+02  2.373540543E+02 -5.955685427E+01  3.302190623E+02  1.250000000E+02  0.00000E+00  9.000E+00
      21     1     1     2   501   512 -1.327240936E+02  4.275109526E+01  4.940598113E+02  5.133599500E+02  1.078959322E-05  0.00000E+00  9.000E+00
#rwgt            1           1   4.2926959776043244E-002          26      157306           0
</event>
<event>
      5   9999  3.70600E-02  1.12527E+02 -1.00000E+00  1.21564E-01
      21    -1     0     0   502   511  0.000000000E+00  0.000000000E+00  1.180117456E+03  1.180117456E+03  0.000000000E+00  0.00000E+00  9.000E+00
      21    -1     0     0   501   502  0.000000000E+00  0.000000000E+00 -2.250395434E+02  2.250395434E+02  0.000000000E+00  0.00000E+00  9.000E+00
      25     1     1     2     0     0 -6.165823206E+01  1.556163021E+02 -9.017662628E+01  2.275411940E+02  1.250000000E+02  0.00000E+00  9.000E+00
      25     1     1     2     0     0  1.545855545E+02 -2.190735018E+02  2.908311474E+02  4.148465369E+02  1.250000000E+02  0.00000E+00  9.000E+00
      21     1     1     2   501   511 -9.292732245E+01  6.345719974E+01  7.544233914E+02  7.627692685E+02  0.000000000E+00  0.00000E+00  9.000E+00
#rwgt            1           1   4.4492596181683108E-002          26      157827           0
</event>
<event>
      5   9999  3.70600E-02  7.45430E+01 -1.00000E+00  1.29850E-01
       2    -1     0     0   502     0  0.000000000E+00  0.000000000E+00  1.627633196E+03  1.627633196E+03  0.000000000E+00  0.00000E+00  9.000E+00
      21    -1     0     0   501   502  0.000000000E+00  0.000000000E+00 -1.255472532E+02  1.255472532E+02  0.000000000E+00  0.00000E+00  9.000E+00
      25     1     1     2     0     0  7.564032888E+01 -2.133370604E+02  2.594767870E+02  3.663159343E+02  1.250000000E+02  0.00000E+00  9.000E+00
      25     1     1     2     0     0 -8.770516685E+00  1.803963419E+02  9.916770395E+01  2.409958416E+02  1.250000000E+02  0.00000E+00  9.000E+00
       2     1     1     2   501     0 -6.686981219E+01  3.294071853E+01  1.143441452E+03  1.145868674E+03  0.000000000E+00  0.00000E+00  9.000E+00
#rwgt            1           1   4.7680864253004641E-002          26      158001           0
</event>
<event>
      5   9999  3.70600E-02  8.56851E+01 -1.00000E+00  1.26921E-01
      21    -1     0     0   502   511  0.000000000E+00  0.000000000E+00  5.854540953E+02  5.854540953E+02  0.000000000E+00  0.00000E+00  9.000E+00
      21    -1     0     0   501   502  0.000000000E+00  0.000000000E+00 -1.116881691E+02  1.116881691E+02  0.000000000E+00  0.00000E+00  9.000E+00
      25     1     1     2     0     0  1.045826825E+02  2.870992892E+01  4.815013248E+01  1.723520605E+02  1.250000000E+02  0.00000E+00  9.000E+00
      25     1     1     2     0     0 -1.597089886E+02  3.688757364E+01  2.171946260E+02  2.994430826E+02  1.250000000E+02  0.00000E+00  9.000E+00
      21     1     1     2   501   511  5.512630609E+01 -6.559750256E+01  2.084211677E+02  2.253471213E+02  4.672030912E-06  0.00000E+00  9.000E+00
#rwgt            1           1   3.9347017125202721E-002          26      158217           0
</event>
<event>
      5   9999  3.70600E-02  1.05795E+02 -1.00000E+00  1.22736E-01
      21    -1     0     0   502   501  0.000000000E+00  0.000000000E+00  1.418453327E+02  1.418453327E+02  0.000000000E+00  0.00000E+00  9.000E+00
      21    -1     0     0   512   502  0.000000000E+00  0.000000000E+00 -5.348930757E+02  5.348930757E+02  0.000000000E+00  0.00000E+00  9.000E+00
      25     1     1     2     0     0 -1.229854651E+02 -4.735018446E+01 -9.212906280E+01  2.036669556E+02  1.250000000E+02  0.00000E+00  9.000E+00
      25     1     1     2     0     0  2.257145715E+02  2.206683547E+01 -2.218691688E+02  3.410057786E+02  1.250000000E+02  0.00000E+00  9.000E+00
      21     1     1     2   512   501 -1.027291064E+02  2.528334899E+01 -7.904951150E+01  1.320656742E+02  1.907348633E-06  0.00000E+00  9.000E+00
#rwgt            1           1   1.8873417133713166E-002          26      158590           0
</event>
<event>
      5   9999  3.70600E-02  2.54071E+01 -1.00000E+00  1.58224E-01
      21    -1     0     0   511   501  0.000000000E+00  0.000000000E+00  7.793627463E+02  7.793627463E+02  0.000000000E+00  0.00000E+00  9.000E+00
      21    -1     0     0   501   502  0.000000000E+00  0.000000000E+00 -1.469192362E+02  1.469192362E+02  0.000000000E+00  0.00000E+00  9.000E+00
      25     1     1     2     0     0  1.782010131E+02  9.723714830E+01  3.924468657E+01  2.416108638E+02  1.250000000E+02  0.00000E+00  9.000E+00
      25     1     1     2     0     0 -1.840210382E+02 -7.250564094E+01  2.571624372E+02  3.476756097E+02  1.250000000E+02  0.00000E+00  9.000E+00
      21     1     1     2   511   502  5.820025053E+00 -2.473150736E+01  3.360363863E+02  3.369955090E+02  3.814697266E-06  0.00000E+00  9.000E+00
#rwgt            1           1   3.8903093946446206E-002          26      158843           0
</event>
<event>
      5   9999  3.70600E-02  3.19913E+02 -1.00000E+00  1.04692E-01
      -3    -1     0     0     0   501  0.000000000E+00  0.000000000E+00  6.070347625E+02  6.070347625E+02  0.000000000E+00  0.00000E+00  9.000E+00
      21    -1     0     0   501   502  0.000000000E+00  0.000000000E+00 -1.072765399E+03  1.072765399E+03  0.000000000E+00  0.00000E+00  9.000E+00
      25     1     1     2     0     0  8.332320824E+01 -3.262888194E+02 -4.614712251E+02  5.847972660E+02  1.250000000E+02  0.00000E+00  9.000E+00
      25     1     1     2     0     0 -1.510557868E+02  1.362870691E+01 -4.817215678E+02  5.202732564E+02  1.250000000E+02  0.00000E+00  9.000E+00
      -3     1     1     2     0   502  6.773257856E+01  3.126601125E+02  4.774621561E+02  5.747296396E+02  7.629394531E-06  0.00000E+00  9.000E+00
#rwgt            2           3   9.7385285628059660E-005          26      159145           0
</event>
<event>
      5   9999  3.70600E-02  2.41988E+01 -1.00000E+00  1.59815E-01
      21    -1     0     0   511   501  0.000000000E+00  0.000000000E+00  5.394067384E+01  5.394067384E+01  0.000000000E+00  0.00000E+00  9.000E+00
      21    -1     0     0   501   502  0.000000000E+00  0.000000000E+00 -6.432687087E+02  6.432687087E+02  0.000000000E+00  0.00000E+00  9.000E+00
      25     1     1     2     0     0  2.889809543E+01  8.169265344E+01 -2.856960849E+02  3.236603814E+02  1.250000000E+02  0.00000E+00  9.000E+00
      25     1     1     2     0     0 -4.376890353E+01 -6.260233457E+01 -3.145591519E+02  3.469974485E+02  1.250000000E+02  0.00000E+00  9.000E+00
      21     1     1     2   511   502  1.487080809E+01 -1.909031887E+01  1.092720193E+01  2.655155268E+01  6.078504936E-07  0.00000E+00  9.000E+00
#rwgt            1           1   1.3583760762759876E-002          26      159419           0
</event>
<event>
      5   9999  3.70600E-02  1.10557E+02 -1.00000E+00  1.21897E-01
      21    -1     0     0   502   501  0.000000000E+00  0.000000000E+00  1.015282351E+03  1.015282351E+03  0.000000000E+00  0.00000E+00  9.000E+00
      21    -1     0     0   501   512  0.000000000E+00  0.000000000E+00 -1.366184763E+02  1.366184763E+02  0.000000000E+00  0.00000E+00  9.000E+00
      25     1     1     2     0     0 -8.180022386E+01 -1.744276289E+02  8.186767041E+02  8.502780841E+02  1.250000000E+02  0.00000E+00  9.000E+00
      25     1     1     2     0     0 -2.722905456E+00  1.031628103E+02 -2.254723725E+01  1.636562175E+02  1.250000000E+02  0.00000E+00  9.000E+00
      21     1     1     2   502   512  8.452312932E+01  7.126481865E+01  8.253440819E+01  1.379665260E+02  2.523185073E-06  0.00000E+00  9.000E+00
#rwgt            1           1   4.1550116137874744E-002          26      159705           0
</event>
<event>
      5   9999  3.70600E-02  9.59273E+01 -1.00000E+00  1.24644E-01
      21    -1     0     0   502   501  0.000000000E+00  0.000000000E+00  1.804979474E+02  1.804979474E+02  0.000000000E+00  0.00000E+00  9.000E+00
       2    -1     0     0   501     0  0.000000000E+00  0.000000000E+00 -1.301232367E+03  1.301232367E+03  0.000000000E+00  0.00000E+00  9.000E+00
      25     1     1     2     0     0 -7.282943499E+01  1.840446944E+02 -2.149807334E+02  3.178337488E+02  1.250000000E+02  0.00000E+00  9.000E+00
      25     1     1     2     0     0  1.744909815E+00 -1.196316798E+02  6.764405426E+01  1.857834804E+02  1.250000000E+02  0.00000E+00  9.000E+00
       2     1     1     2   502     0  7.108452518E+01 -6.441301463E+01 -9.733977409E+02  9.781130856E+02  1.525878906E-05  0.00000E+00  9.000E+00
#rwgt            1           1   3.9946691091044643E-002          26      159957           0
</event>
<event>
      5   9999  3.70600E-02  1.76341E+01 -1.00000E+00  1.71007E-01
      21    -1     0     0   502   511  0.000000000E+00  0.000000000E+00  1.071735285E+02  1.071735285E+02  0.000000000E+00  0.00000E+00  9.000E+00
      21    -1     0     0   501   502  0.000000000E+00  0.000000000E+00 -5.698167049E+02  5.698167049E+02  0.000000000E+00  0.00000E+00  9.000E+00
      25     1     1     2     0     0 -5.780947505E+01 -1.901150809E+02 -1.786730632E+02  2.950165130E+02  1.250000000E+02  0.00000E+00  9.000E+00
      25     1     1     2     0     0  4.055827994E+01  1.864602871E+02 -2.840874280E+02  3.643392368E+02  1.250000000E+02  0.00000E+00  9.000E+00
      21     1     1     2   501   511  1.725119511E+01  3.654793827E+00  1.173148723E-01  1.763448365E+01  3.595049900E-07  0.00000E+00  9.000E+00
#rwgt            1           1   3.8572708389999648E-002          26      160187           0
</event>
<event>
      5   9999  3.70600E-02  9.66034E+01 -1.00000E+00  1.24505E-01
      21    -1     0     0   502   501  0.000000000E+00  0.000000000E+00  1.593456463E+02  1.593456463E+02  0.000000000E+00  0.00000E+00  9.000E+00
       1    -1     0     0   501     0  0.000000000E+00  0.000000000E+00 -5.484343695E+02  5.484343695E+02  0.000000000E+00  0.00000E+00  9.000E+00
      25     1     1     2     0     0 -1.137947660E+01 -9.513394030E+01 -1.654868721E+02  2.284531985E+02  1.250000000E+02  0.00000E+00  9.000E+00
      25     1     1     2     0     0 -5.912400733E+01  2.909249309E+01  7.885429599E+01  1.618178649E+02  1.250000000E+02  0.00000E+00  9.000E+00
       1     1     1     2   502     0  7.050348393E+01  6.604144721E+01 -3.024561470E+02  3.175089524E+02  3.814697266E-06  0.00000E+00  9.000E+00
#rwgt            1           1   4.5361196828206558E-002          26      160912           0
</event>
<event>
      5   9999  3.70600E-02  9.84271E+01 -1.00000E+00  1.24137E-01
      21    -1     0     0   511   501  0.000000000E+00  0.000000000E+00  8.283197070E+01  8.283197070E+01  0.000000000E+00  0.00000E+00  9.000E+00
      21    -1     0     0   501   502  0.000000000E+00  0.000000000E+00 -1.475395951E+03  1.475395951E+03  0.000000000E+00  0.00000E+00  9.000E+00
      25     1     1     2     0     0 -1.226044220E+02  2.738123203E+02 -4.733936864E+02  5.742226166E+02  1.250000000E+02  0.00000E+00  9.000E+00
      25     1     1     2     0     0  1.046601191E+02 -1.770347196E+02 -7.566631872E+02  7.940146165E+02  1.250000000E+02  0.00000E+00  9.000E+00
      21     1     1     2   511   502  1.794430296E+01 -9.677760073E+01 -1.625071068E+02  1.899906886E+02  0.000000000E+00  0.00000E+00  9.000E+00
#rwgt            1           1   3.7223220620794049E-002          26      161194           0
</event>
<event>
      5   9999  3.70600E-02  5.62130E+01 -1.00000E+00  1.36232E-01
      21    -1     0     0   502   501  0.000000000E+00  0.000000000E+00  7.511930306E+02  7.511930306E+02  0.000000000E+00  0.00000E+00  9.000E+00
      21    -1     0     0   501   512  0.000000000E+00  0.000000000E+00 -7.657264183E+01  7.657264183E+01  0.000000000E+00  0.00000E+00  9.000E+00
      25     1     1     2     0     0 -5.106136647E+01  9.305848151E+01  4.835391241E+02  5.105900789E+02  1.250000000E+02  0.00000E+00  9.000E+00
      25     1     1     2     0     0  1.050591351E+02 -1.086835394E+02  1.586479927E+02  2.522770683E+02  1.250000000E+02  0.00000E+00  9.000E+00
      21     1     1     2   502   512 -5.399776863E+01  1.562505786E+01  3.243327206E+01  6.489852531E+01  1.507891493E-06  0.00000E+00  9.000E+00
#rwgt            1           1   7.7929554452138622E-003          26      161410           0
</event>
<event>
      5   9999 -3.70600E-02  5.89496E+01 -1.00000E+00  1.35112E-01
      21    -1     0     0   502   511  0.000000000E+00  0.000000000E+00  3.431681400E+02  3.431681400E+02  0.000000000E+00  0.00000E+00  9.000E+00
      21    -1     0     0   501   502  0.000000000E+00  0.000000000E+00 -3.328190640E+02  3.328190640E+02  0.000000000E+00  0.00000E+00  9.000E+00
      25     1     1     2     0     0  2.001225166E+02  3.617768068E+01  1.618419150E+02  2.884018926E+02  1.250000000E+02  0.00000E+00  9.000E+00
      25     1     1     2     0     0 -1.963087014E+02  2.264844401E+01 -2.027347979E+02  3.094777157E+02  1.250000000E+02  0.00000E+00  9.000E+00
      21     1     1     2   501   511 -3.813815181E+00 -5.882612469E+01  5.124195899E+01  7.810759562E+01  9.536743164E-07  0.00000E+00  9.000E+00
#rwgt            1           1 -0.10593946324679229               26      161576           0
</event>
<event>
      5   9999  3.70600E-02  9.15989E+01 -1.00000E+00  1.25565E-01
      21    -1     0     0   502   512  0.000000000E+00  0.000000000E+00  2.427991915E+02  2.427991915E+02  0.000000000E+00  0.00000E+00  9.000E+00
      21    -1     0     0   501   502  0.000000000E+00  0.000000000E+00 -2.546662926E+02  2.546662926E+02  0.000000000E+00  0.00000E+00  9.000E+00
      25     1     1     2     0     0 -1.005645186E+02  1.268893280E+02 -7.229058695E+01  2.169448154E+02  1.250000000E+02  0.00000E+00  9.000E+00
      25     1     1     2     0     0  8.966226542E+00 -1.272289716E+02  6.161098720E+01  1.889140497E+02  1.250000000E+02  0.00000E+00  9.000E+00
      21     1     1     2   501   512  9.159829207E+01  3.396436109E-01 -1.187501339E+00  9.160661891E+01  1.200815416E-06  0.00000E+00  9.000E+00
#rwgt            1           1   3.5493444262758224E-002          26      161770           0
</event>
<event>
      5   9999  3.70600E-02  2.09182E+01 -1.00000E+00  1.64773E-01
      21    -1     0     0   511   501  0.000000000E+00  0.000000000E+00  2.525230214E+02  2.525230214E+02  0.000000000E+00  0.00000E+00  9.000E+00
      21    -1     0     0   501   502  0.000000000E+00  0.000000000E+00 -3.080321129E+02  3.080321129E+02  0.000000000E+00  0.00000E+00  9.000E+00
      25     1     1     2     0     0  3.163044603E+00  1.393220676E+02  7.399709574E+01  2.012988165E+02  1.250000000E+02  0.00000E+00  9.000E+00
      25     1     1     2     0     0  7.595952373E-01 -1.598691357E+02 -2.004796283E+02  2.852644368E+02  1.250000000E+02  0.00000E+00  9.000E+00
      21     1     1     2   511   502 -3.922639840E+00  2.054706810E+01  7.097344111E+01  7.399188100E+01  9.536743164E-07  0.00000E+00  9.000E+00
#rwgt            1           1   3.5260049449887941E-002          26      161904           0
</event>
<event>
      5   9999  3.70600E-02  5.62884E+01 -1.00000E+00  1.36200E-01
      21    -1     0     0   502   501  0.000000000E+00  0.000000000E+00  3.774766317E+02  3.774766317E+02  0.000000000E+00  0.00000E+00  9.000E+00
      21    -1     0     0   501   512  0.000000000E+00  0.000000000E+00 -1.710178259E+02  1.710178259E+02  0.000000000E+00  0.00000E+00  9.000E+00
      25     1     1     2     0     0  5.090068276E-01  1.262626303E+02  2.215522891E+02  2.839945909E+02  1.250000000E+02  0.00000E+00  9.000E+00
      25     1     1     2     0     0  5.100485331E+01 -1.489498824E+02  1.327551567E+01  2.014666271E+02  1.250000000E+02  0.00000E+00  9.000E+00
      21     1     1     2   502   512 -5.151386014E+01  2.268725209E+01 -2.836899887E+01  6.303323957E+01  9.536743164E-07  0.00000E+00  9.000E+00
#rwgt            1           1   4.7704313935444276E-002          26      162243           0
</event>
<event>
      5   9999  3.70600E-02  2.79616E+01 -1.00000E+00  1.55190E-01
      21    -1     0     0   502   501  0.000000000E+00  0.000000000E+00  1.763636948E+02  1.763636948E+02  0.000000000E+00  0.00000E+00  9.000E+00
      21    -1     0     0   501   511  0.000000000E+00  0.000000000E+00 -3.573568042E+02  3.573568042E+02  0.000000000E+00  0.00000E+00  9.000E+00
      25     1     1     2     0     0 -1.677312388E+02  3.739335492E+01  3.207960980E+01  2.149095922E+02  1.250000000E+02  0.00000E+00  9.000E+00
      25     1     1     2     0     0  1.438345452E+02 -5.191219031E+01 -1.443953073E+02  2.446594708E+02  1.250000000E+02  0.00000E+00  9.000E+00
      21     1     1     2   502   511  2.389669360E+01  1.451883539E+01 -6.867741198E+01  7.415143601E+01  0.000000000E+00  0.00000E+00  9.000E+00
#rwgt            1           1   3.9631982552359682E-002          26      162377           0
</event>
<event>
      5   9999  3.70600E-02  6.13674E+01 -1.00000E+00  1.34180E-01
      21    -1     0     0   502   501  0.000000000E+00  0.000000000E+00  2.764529140E+02  2.764529140E+02  0.000000000E+00  0.00000E+00  9.000E+00
      21    -1     0     0   512   502  0.000000000E+00  0.000000000E+00 -1.572654338E+02  1.572654338E+02  0.000000000E+00  0.00000E+00  9.000E+00
      25     1     1     2     0     0 -1.528631814E+01 -6.938469965E+01  1.374808316E+02  1.989318656E+02  1.250000000E+02  0.00000E+00  9.000E+00
      25     1     1     2     0     0 -2.830467653E+01  1.125794464E+02 -2.730962542E+01  1.727602446E+02  1.250000000E+02  0.00000E+00  9.000E+00
      21     1     1     2   512   501  4.359099467E+01 -4.319474676E+01  9.016273938E+00  6.202623767E+01  1.359195024E-06  0.00000E+00  9.000E+00
#rwgt            1           1   4.6613744392420893E-002          26      162585           0
</event>
<event>
      5   9999  3.70600E-02  2.22121E+01 -1.00000E+00  1.62693E-01
       1    -1     0     0   502     0  0.000000000E+00  0.000000000E+00  2.711713648E+02  2.711713648E+02  0.000000000E+00  0.00000E+00  9.000E+00
      21    -1     0     0   501   502  0.000000000E+00  0.000000000E+00 -5.879612304E+02  5.879612304E+02  0.000000000E+00  0.00000E+00  9.000E+00
      25     1     1     2     0     0  5.229391589E+01  3.954339539E+01 -3.889155349E+02  4.137373889E+02  1.250000000E+02  0.00000E+00  9.000E+00
      25     1     1     2     0     0 -6.522743281E+01 -2.148509535E+01 -1.587764114E+02  2.134272151E+02  1.250000000E+02  0.00000E+00  9.000E+00
       1     1     1     2   501     0  1.293351692E+01 -1.805830003E+01  2.309020807E+02  2.319679912E+02  3.814697266E-06  0.00000E+00  9.000E+00
#rwgt            1           1   3.2748094406332015E-002          26      162695           0
</event>
<event>
      5   9999  3.70600E-02  3.22463E+01 -1.00000E+00  1.50891E-01
      21    -1     0     0   502   511  0.000000000E+00  0.000000000E+00  2.644194176E+02  2.644194176E+02  0.000000000E+00  0.00000E+00  9.000E+00
      21    -1     0     0   501   502  0.000000000E+00  0.000000000E+00 -1.131064004E+03  1.131064004E+03  0.000000000E+00  0.00000E+00  9.000E+00
      25     1     1     2     0     0 -2.600178408E+01  6.577131144E+01 -1.997283960E+02  2.460048584E+02  1.250000000E+02  0.00000E+00  9.000E+00
      25     1     1     2     0     0  8.870142762E+00 -9.309035682E+01 -9.003727294E+02  9.138055296E+02  1.250000000E+02  0.00000E+00  9.000E+00
      21     1     1     2   501   511  1.713164132E+01  2.731904538E+01  2.334565389E+02  2.356730339E+02  6.607249480E-06  0.00000E+00  9.000E+00
#rwgt            1           1   4.4084372672736745E-002          26      163229           0
</event>
<event>
      5   9999  3.70600E-02  2.09615E+01 -1.00000E+00  1.64701E-01
      21    -1     0     0   512   501  0.000000000E+00  0.000000000E+00  1.524157709E+02  1.524157709E+02  0.000000000E+00  0.00000E+00  9.000E+00
      21    -1     0     0   501   502  0.000000000E+00  0.000000000E+00 -2.231066076E+02  2.231066076E+02  0.000000000E+00  0.00000E+00  9.000E+00
      25     1     1     2     0     0  6.341438751E+01 -3.509940244E+01 -3.786267734E+00  1.445430331E+02  1.250000000E+02  0.00000E+00  9.000E+00
      25     1     1     2     0     0 -8.292089215E+01  4.277277206E+01 -1.046283737E+02  1.878230044E+02  1.250000000E+02  0.00000E+00  9.000E+00
      21     1     1     2   512   502  1.950650464E+01 -7.673369626E+00  3.772380479E+01  4.315634105E+01  0.000000000E+00  0.00000E+00  9.000E+00
#rwgt            1           1   4.7479224002114739E-002          26      163851           0
</event>
<event>
      5   9999  3.70600E-02  1.75809E+01 -1.00000E+00  1.71122E-01
      21    -1     0     0   511   501  0.000000000E+00  0.000000000E+00  3.686081573E+02  3.686081573E+02  0.000000000E+00  0.00000E+00  9.000E+00
      21    -1     0     0   501   502  0.000000000E+00  0.000000000E+00 -2.611529694E+02  2.611529694E+02  0.000000000E+00  0.00000E+00  9.000E+00
      25     1     1     2     0     0  1.250855647E+02  1.377337670E+02  2.378998076E+02  3.268612970E+02  1.250000000E+02  0.00000E+00  9.000E+00
      25     1     1     2     0     0 -1.401952453E+02 -1.287456803E+02 -1.529694739E+02  2.743261142E+02  1.250000000E+02  0.00000E+00  9.000E+00
      21     1     1     2   511   502  1.510968064E+01 -8.988086685E+00  2.252485428E+01  2.857371540E+01  2.384185791E-07  0.00000E+00  9.000E+00
#rwgt            1           1   2.8895597009150405E-002          26      164099           0
</event>
<event>
      5   9999  3.70600E-02  2.61014E+01 -1.00000E+00  1.57358E-01
      21    -1     0     0   512   501  0.000000000E+00  0.000000000E+00  8.791263527E+02  8.791263527E+02  0.000000000E+00  0.00000E+00  9.000E+00
      21    -1     0     0   501   502  0.000000000E+00  0.000000000E+00 -4.644979883E+03  4.644979883E+03  0.000000000E+00  0.00000E+00  9.000E+00
      25     1     1     2     0     0 -9.244273345E+01  2.683969986E+01 -5.835811690E+02  6.045312310E+02  1.250000000E+02  0.00000E+00  9.000E+00
      25     1     1     2     0     0  7.943341933E+01 -4.211410876E+00 -4.049372459E+03  4.052082145E+03  1.250000000E+02  0.00000E+00  9.000E+00
      21     1     1     2   512   502  1.300931412E+01 -2.262828898E+01  8.671000975E+02  8.674928592E+02  1.868812365E-05  0.00000E+00  9.000E+00
#rwgt            1           1   2.0113498098047310E-003          26      164501           0
</event>
<event>
      5   9999  3.70600E-02  5.65965E+01 -1.00000E+00  1.36071E-01
      21    -1     0     0   502   501  0.000000000E+00  0.000000000E+00  1.129646909E+03  1.129646909E+03  0.000000000E+00  0.00000E+00  9.000E+00
      21    -1     0     0   511   502  0.000000000E+00  0.000000000E+00 -6.217843757E+01  6.217843757E+01  0.000000000E+00  0.00000E+00  9.000E+00
      25     1     1     2     0     0 -5.511500677E+01  1.671882932E+02  4.840111950E+02  5.299824773E+02  1.250000000E+02  0.00000E+00  9.000E+00
      25     1     1     2     0     0  6.504990970E+01 -1.114706353E+02  5.776518190E+02  6.049494337E+02  1.250000000E+02  0.00000E+00  9.000E+00
      21     1     1     2   511   501 -9.934902934E+00 -5.571765792E+01  5.805457646E+00  5.689343582E+01  7.396741894E-07  0.00000E+00  9.000E+00
#rwgt            1           1   2.2209533935709673E-002          26      164723           0
</event>
<event>
      5   9999  3.70600E-02  1.56609E+01 -1.00000E+00  1.75634E-01
      21    -1     0     0   512   501  0.000000000E+00  0.000000000E+00  2.834573247E+02  2.834573247E+02  0.000000000E+00  0.00000E+00  9.000E+00
      21    -1     0     0   501   502  0.000000000E+00  0.000000000E+00 -2.998775576E+02  2.998775576E+02  0.000000000E+00  0.00000E+00  9.000E+00
      25     1     1     2     0     0  8.185902457E+01  1.604031007E+02  7.217427349E+01  2.307903386E+02  1.250000000E+02  0.00000E+00  9.000E+00
      25     1     1     2     0     0 -7.508133914E+01 -1.745213942E+02 -1.608865100E+02  2.785756515E+02  1.250000000E+02  0.00000E+00  9.000E+00
      21     1     1     2   512   502 -6.777685431E+00  1.411829352E+01  7.229200363E+01  7.396889225E+01  0.000000000E+00  0.00000E+00  9.000E+00
#rwgt            1           1   3.3065485718022043E-002          26      165009           0
</event>
<event>
      5   9999  3.70600E-02  3.80197E+01 -1.00000E+00  1.46219E-01
      21    -1     0     0   511   501  0.000000000E+00  0.000000000E+00  1.316405280E+02  1.316405280E+02  0.000000000E+00  0.00000E+00  9.000E+00
      21    -1     0     0   501   502  0.000000000E+00  0.000000000E+00 -3.994724577E+02  3.994724577E+02  0.000000000E+00  0.00000E+00  9.000E+00
      25     1     1     2     0     0 -1.643848571E+02 -4.402776514E+01 -1.884667278E+02  2.830292085E+02  1.250000000E+02  0.00000E+00  9.000E+00
      25     1     1     2     0     0  1.357377513E+02  6.902452566E+01 -6.554252863E+01  2.076293460E+02  1.250000000E+02  0.00000E+00  9.000E+00
      21     1     1     2   511   502  2.864710586E+01 -2.499676052E+01 -1.382267323E+01  4.045443123E+01  6.743495762E-07  0.00000E+00  9.000E+00
#rwgt            1           1   2.9630505834738485E-002          26      165580           0
</event>
<event>
      5   9999  3.70600E-02  2.78653E+01 -1.00000E+00  1.55297E-01
      21    -1     0     0   502   501  0.000000000E+00  0.000000000E+00  7.641152456E+02  7.641152456E+02  0.000000000E+00  0.00000E+00  9.000E+00
      21    -1     0     0   512   502  0.000000000E+00  0.000000000E+00 -1.951225551E+02  1.951225551E+02  0.000000000E+00  0.00000E+00  9.000E+00
      25     1     1     2     0     0 -1.187676878E+02  5.776355222E+01 -9.844522296E+01  2.067821403E+02  1.250000000E+02  0.00000E+00  9.000E+00
      25     1     1     2     0     0  9.262194869E+01 -6.740085995E+01  6.937275662E+02  7.141460897E+02  1.250000000E+02  0.00000E+00  9.000E+00
      21     1     1     2   512   501  2.614573909E+01  9.637307734E+00 -2.628965270E+01  3.830957076E+01  6.743495762E-07  0.00000E+00  9.000E+00
#rwgt            1           1   4.0736375652878049E-002          26      165730           0
</event>
<event>
      5   9999  3.70600E-02  3.15075E+01 -1.00000E+00  1.51573E-01
      21    -1     0     0   511   501  0.000000000E+00  0.000000000E+00  3.108002823E+02  3.108002823E+02  0.000000000E+00  0.00000E+00  9.000E+00
      21    -1     0     0   501   502  0.000000000E+00  0.000000000E+00 -6.330107243E+02  6.330107243E+02  0.000000000E+00  0.00000E+00  9.000E+00
      25     1     1     2     0     0 -5.359818485E+01 -1.664351703E+02 -1.996424206E+02  2.933522242E+02  1.250000000E+02  0.00000E+00  9.000E+00
      25     1     1     2     0     0  7.478805181E+01  1.897527536E+02 -3.483010108E+02  4.225375182E+02  1.250000000E+02  0.00000E+00  9.000E+00
      21     1     1     2   511   502 -2.118986697E+01 -2.331758326E+01  2.257329894E+02  2.279212641E+02  2.697398305E-06  0.00000E+00  9.000E+00
#rwgt            1           1   2.8534877083181781E-002          26      166329           0
</event>
<event>
      5   9999  3.70600E-02  1.78350E+02 -1.00000E+00  1.13488E-01
      21    -1     0     0   502   501  0.000000000E+00  0.000000000E+00  1.078296921E+03  1.078296921E+03  0.000000000E+00  0.00000E+00  9.000E+00
      21    -1     0     0   501   512  0.000000000E+00  0.000000000E+00 -3.698469967E+02  3.698469967E+02  0.000000000E+00  0.00000E+00  9.000E+00
      25     1     1     2     0     0  1.551221335E+02 -1.881343481E+02  5.745178500E+02  6.365164328E+02  1.250000000E+02  0.00000E+00  9.000E+00
      25     1     1     2     0     0 -1.752347264E+02  1.092176269E+01  4.214059647E+02  4.733228088E+02  1.250000000E+02  0.00000E+00  9.000E+00
      21     1     1     2   502   512  2.011259291E+01  1.772125854E+02 -2.874738899E+02  3.383046766E+02  0.000000000E+00  0.00000E+00  9.000E+00
#rwgt            1           1   3.8491831420121407E-002          26      166745           0
</event>
<event>
      5   9999  3.70600E-02  1.03695E+01 -1.00000E+00  1.93948E-01
      21    -1     0     0   502   511  0.000000000E+00  0.000000000E+00  1.238838362E+03  1.238838362E+03  0.000000000E+00  0.00000E+00  9.000E+00
      21    -1     0     0   501   502  0.000000000E+00  0.000000000E+00 -3.918021387E+01  3.918021387E+01  0.000000000E+00  0.00000E+00  9.000E+00
      25     1     1     2     0     0 -5.721281928E+00  1.671592428E+02  5.872310816E+02  6.232497804E+02  1.250000000E+02  0.00000E+00  9.000E+00
      25     1     1     2     0     0  1.364259988E+01 -1.738510224E+02  5.313938395E+02  5.730747867E+02  1.250000000E+02  0.00000E+00  9.000E+00
      21     1     1     2   501   511 -7.921317953E+00  6.691779634E+00  8.103322738E+01  8.169400916E+01  0.000000000E+00  0.00000E+00  9.000E+00
#rwgt            1           1   2.7063347220294215E-002          26      166819           0
</event>
<event>
      5   9999  3.70600E-02  3.26481E+01 -1.00000E+00  1.50529E-01
      21    -1     0     0   502   501  0.000000000E+00  0.000000000E+00  1.138755412E+03  1.138755412E+03  0.000000000E+00  0.00000E+00  9.000E+00
      21    -1     0     0   501   512  0.000000000E+00  0.000000000E+00 -1.367966279E+02  1.367966279E+02  0.000000000E+00  0.00000E+00  9.000E+00
      25     1     1     2     0     0 -1.535439713E+02  6.169743088E+01  5.601750239E+02  5.973302115E+02  1.250000000E+02  0.00000E+00  9.000E+00
      25     1     1     2     0     0  1.691397867E+02 -9.037959962E+01  5.336774899E+02  5.807007859E+02  1.250000000E+02  0.00000E+00  9.000E+00
      21     1     1     2   502   512 -1.559581539E+01  2.868216874E+01 -9.189372957E+01  9.752104283E+01  2.697398305E-06  0.00000E+00  9.000E+00
#rwgt            2          11   3.2090035826065374E-003          26      167490           0
</event>
<event>
      5   9999  3.70600E-02  4.92747E+01 -1.00000E+00  1.39436E-01
      21    -1     0     0   502   511  0.000000000E+00  0.000000000E+00  8.459104005E+02  8.459104005E+02  0.000000000E+00  0.00000E+00  9.000E+00
      21    -1     0     0   501   502  0.000000000E+00  0.000000000E+00 -2.251762176E+02  2.251762176E+02  0.000000000E+00  0.00000E+00  9.000E+00
      25     1     1     2     0     0 -9.730272948E+01  3.358656868E+02  3.313587979E+02  4.976919064E+02  1.250000000E+02  0.00000E+00  9.000E+00
      25     1     1     2     0     0  8.155561107E+01 -2.891749436E+02  5.028871244E+01  3.292831917E+02  1.250000000E+02  0.00000E+00  9.000E+00
      21     1     1     2   501   511  1.574711840E+01 -4.669074316E+01  2.390866726E+02  2.441115201E+02  4.672030912E-06  0.00000E+00  9.000E+00
#rwgt            1           1   3.2060972296946225E-002          26      167810           0
</event>
<event>
      5   9999  3.70600E-02  1.36142E+02 -1.00000E+00  1.18085E-01
      21    -1     0     0   502   501  0.000000000E+00  0.000000000E+00  2.094114624E+03  2.094114624E+03  0.000000000E+00  0.00000E+00  9.000E+00
      -2    -1     0     0     0   502  0.000000000E+00  0.000000000E+00 -7.447584713E+01  7.447584713E+01  0.000000000E+00  0.00000E+00  9.000E+00
      25     1     1     2     0     0  6.183657903E+01  1.974662621E+02  7.143763969E+02  7.541719456E+02  1.250000000E+02  0.00000E+00  9.000E+00
      25     1     1     2     0     0 -1.968574115E+02 -1.800331919E+02  1.217046055E+03  1.252194430E+03  1.250000000E+02  0.00000E+00  9.000E+00
      -2     1     1     2     0   501  1.350208324E+02 -1.743307023E+01  8.821632487E+01  1.622240953E+02  4.156969970E-06  0.00000E+00  9.000E+00
#rwgt            1           1   2.1496696288739629E-002          26      168255           0
</event>
<event>
      5   9999  3.70600E-02  4.09248E+01 -1.00000E+00  1.44225E-01
      21    -1     0     0   502   501  0.000000000E+00  0.000000000E+00  2.809102055E+03  2.809102055E+03  0.000000000E+00  0.00000E+00  9.000E+00
      21    -1     0     0   511   502  0.000000000E+00  0.000000000E+00 -2.254027525E+01  2.254027525E+01  0.000000000E+00  0.00000E+00  9.000E+00
      25     1     1     2     0     0  8.132965487E+01 -4.866026017E+00  3.085787740E+02  3.427594649E+02  1.250000000E+02  0.00000E+00  9.000E+00
      25     1     1     2     0     0 -9.378528451E+01 -3.411728997E+01  2.325783776E+03  2.331277513E+03  1.250000000E+02  0.00000E+00  9.000E+00
      21     1     1     2   511   501  1.245562964E+01  3.898331599E+01  1.521992302E+02  1.576053530E+02  3.303624740E-06  0.00000E+00  9.000E+00
#rwgt            1           1   5.6721523789839662E-002          26      168314           0
</event>
<event>
      5   9999  3.70600E-02  2.71544E+01 -1.00000E+00  1.56105E-01
      21    -1     0     0   512   501  0.000000000E+00  0.000000000E+00  1.771282771E+03  1.771282771E+03  0.000000000E+00  0.00000E+00  9.000E+00
      21    -1     0     0   501   502  0.000000000E+00  0.000000000E+00 -1.783569179E+02  1.783569179E+02  0.000000000E+00  0.00000E+00  9.000E+00
      25     1     1     2     0     0 -4.874329605E+02  9.477138817E+01  5.377871572E+02  7.425715679E+02  1.250000000E+02  0.00000E+00  9.000E+00
      25     1     1     2     0     0  4.622717249E+02 -1.049829380E+02  7.213336904E+02  8.721604542E+02  1.250000000E+02  0.00000E+00  9.000E+00
      21     1     1     2   512   502  2.516123558E+01  1.021154978E+01  3.338050057E+02  3.349076669E+02  5.394796609E-06  0.00000E+00  9.000E+00
#rwgt            1           1   9.0445157789485031E-002          26      169064           0
</event>
<event>
      5   9999  3.70600E-02  1.49837E+01 -1.00000E+00  1.77425E-01
       1    -1     0     0   502     0  0.000000000E+00  0.000000000E+00  1.131849786E+03  1.131849786E+03  0.000000000E+00  0.00000E+00  9.000E+00
      21    -1     0     0   501   502  0.000000000E+00  0.000000000E+00 -9.793447111E+01  9.793447111E+01  0.000000000E+00  0.00000E+00  9.000E+00
      25     1     1     2     0     0 -6.378055594E+01  6.042472978E+01 -4.918992155E+00  1.528669479E+02  1.250000000E+02  0.00000E+00  9.000E+00
      25     1     1     2     0     0  5.872955714E+01 -4.631807813E+01  2.606856147E+02  2.986243710E+02  1.250000000E+02  0.00000E+00  9.000E+00
       1     1     1     2   501     0  5.050998800E+00 -1.410665164E+01  7.781486929E+02  7.782929387E+02  1.078959322E-05  0.00000E+00  9.000E+00
#rwgt            1           1   3.0340271494102421E-002          26      169466           0
</event>
<event>
      5   9999  3.70600E-02  1.15576E+01 -1.00000E+00  1.88756E-01
      21    -1     0     0   502   511  0.000000000E+00  0.000000000E+00  4.737111441E+02  4.737111441E+02  0.000000000E+00  0.00000E+00  9.000E+00
      21    -1     0     0   501   502  0.000000000E+00  0.000000000E+00 -9.540475645E+01  9.540475645E+01  0.000000000E+00  0.00000E+00  9.000E+00
      25     1     1     2     0     0  9.377936060E+01  7.992351226E+01  1.356287707E+02  2.218163649E+02  1.250000000E+02  0.00000E+00  9.000E+00
      25     1     1     2     0     0 -8.722024897E+01 -7.040740898E+01  8.315989084E+01  1.873636638E+02  1.250000000E+02  0.00000E+00  9.000E+00
      21     1     1     2   501   511 -6.559111633E+00 -9.516103284E+00  1.595177261E+02  1.599358719E+02  1.907348633E-06  0.00000E+00  9.000E+00
#rwgt            1           1   2.4514877585414513E-002          26      169797           0
</event>
<event>
      5   9999  3.70600E-02  5.51187E+01 -1.00000E+00  1.36701E-01
      21    -1     0     0   502   512  0.000000000E+00  0.000000000E+00  1.071727917E+02  1.071727917E+02  0.000000000E+00  0.00000E+00  9.000E+00
      21    -1     0     0   501   502  0.000000000E+00  0.000000000E+00 -1.090791078E+03  1.090791078E+03  0.000000000E+00  0.00000E+00  9.000E+00
      25     1     1     2     0     0  1.945530582E+01 -5.638278647E+01 -9.973897477E+02  1.006960196E+03  1.250000000E+02  0.00000E+00  9.000E+00
      25     1     1     2     0     0  3.194146056E+01  3.647182812E+01 -4.757076271E-01  1.340734032E+02  1.250000000E+02  0.00000E+00  9.000E+00
      21     1     1     2   501   512 -5.139676638E+01  1.991095835E+01  1.424716914E+01  5.693027038E+01  1.305872339E-06  0.00000E+00  9.000E+00
#rwgt            1           1   4.8467333806619578E-002          26      170442           0
</event>
<event>
      5   9999  3.70600E-02  7.94578E+01 -1.00000E+00  1.28491E-01
      -1    -1     0     0     0   501  0.000000000E+00  0.000000000E+00  2.762337091E+02  2.762337091E+02  0.000000000E+00  0.00000E+00  9.000E+00
      21    -1     0     0   501   502  0.000000000E+00  0.000000000E+00 -3.366819743E+02  3.366819743E+02  0.000000000E+00  0.00000E+00  9.000E+00
      25     1     1     2     0     0  3.559728089E+01 -1.509003217E+02 -5.055848408E+01  2.054731949E+02  1.250000000E+02  0.00000E+00  9.000E+00
      25     1     1     2     0     0 -1.021246879E+02  1.074532109E+02 -1.508193755E+02  2.456565253E+02  1.250000000E+02  0.00000E+00  9.000E+00
      -1     1     1     2     0   502  6.652740704E+01  4.344711089E+01  1.409295943E+02  1.617859632E+02  0.000000000E+00  0.00000E+00  9.000E+00
#rwgt            1           1   3.2492121304657111E-002          26      170751           0
</event>
<event>
      5   9999  3.70600E-02  9.35428E+01 -1.00000E+00  1.25144E-01
      21    -1     0     0   511   501  0.000000000E+00  0.000000000E+00  1.769246368E+03  1.769246368E+03  0.000000000E+00  0.00000E+00  9.000E+00
      21    -1     0     0   501   502  0.000000000E+00  0.000000000E+00 -1.732747249E+02  1.732747249E+02  0.000000000E+00  0.00000E+00  9.000E+00
      25     1     1     2     0     0 -5.223292696E+01  1.370402606E+01 -1.150172224E+02  1.782415228E+02  1.250000000E+02  0.00000E+00  9.000E+00
      25     1     1     2     0     0  1.186496382E+01  7.068012452E+01  1.806086089E+02  2.310431280E+02  1.250000000E+02  0.00000E+00  9.000E+00
      21     1     1     2   511   502  4.036796315E+01 -8.438415058E+01  1.530380256E+03  1.533236442E+03  2.157918644E-05  0.00000E+00  9.000E+00
#rwgt            1           1   2.1495013779205496E-002          26      171453           0
</event>
<event>
      5   9999  3.70600E-02  9.24707E+01 -1.00000E+00  1.25375E-01
      21    -1     0     0   502   501  0.000000000E+00  0.000000000E+00  5.878359506E+01  5.878359506E+01  0.000000000E+00  0.00000E+00  9.000E+00
      21    -1     0     0   501   512  0.000000000E+00  0.000000000E+00 -2.330782144E+03  2.330782144E+03  0.000000000E+00  0.00000E+00  9.000E+00
      25     1     1     2     0     0  1.194451966E+02  4.211981898E+01 -1.099575841E+02  2.091815108E+02  1.250000000E+02  0.00000E+00  9.000E+00
      25     1     1     2     0     0 -6.835413608E+01  3.495507185E+01 -6.889735020E+02  7.044172282E+02  1.250000000E+02  0.00000E+00  9.000E+00
      21     1     1     2   502   512 -5.109106054E+01 -7.707489082E+01 -1.473067463E+03  1.475967000E+03  2.157918644E-05  0.00000E+00  9.000E+00
#rwgt            2          11   4.2609972313575824E-004          26      171568           0
</event>
<event>
      5   9999  3.70600E-02  5.87602E+01 -1.00000E+00  1.35188E-01
      21    -1     0     0   502   501  0.000000000E+00  0.000000000E+00  6.233750981E+02  6.233750981E+02  0.000000000E+00  0.00000E+00  9.000E+00
      21    -1     0     0   501   511  0.000000000E+00  0.000000000E+00 -7.934881377E+01  7.934881377E+01  0.000000000E+00  0.00000E+00  9.000E+00
      25     1     1     2     0     0 -1.591333701E+02 -3.815134435E+00  3.121773384E+02  3.720452598E+02  1.250000000E+02  0.00000E+00  9.000E+00
      25     1     1     2     0     0  1.190719468E+02 -3.917143887E+01  1.738010720E+02  2.480813229E+02  1.250000000E+02  0.00000E+00  9.000E+00
      21     1     1     2   502   511  4.006142326E+01  4.298657331E+01  5.804787396E+01  8.259732920E+01  1.168007728E-06  0.00000E+00  9.000E+00
#rwgt            1           1   2.6961110090865211E-002          26      172533           0
</event>
<event>
      5   9999  3.70600E-02  1.22178E+02 -1.00000E+00  1.20036E-01
      21    -1     0     0   502   501  0.000000000E+00  0.000000000E+00  1.100877457E+02  1.100877457E+02  0.000000000E+00  0.00000E+00  9.000E+00
      21    -1     0     0   501   512  0.000000000E+00  0.000000000E+00 -7.390429064E+02  7.390429064E+02  0.000000000E+00  0.00000E+00  9.000E+00
      25     1     1     2     0     0  1.167386075E+02  7.520662803E+01 -3.692811625E+02  4.138568791E+02  1.250000000E+02  0.00000E+00  9.000E+00
      25     1     1     2     0     0 -9.987072525E+00 -1.346329875E+02 -4.682398570E+01  1.898506481E+02  1.250000000E+02  0.00000E+00  9.000E+00
      21     1     1     2   502   512 -1.067515350E+02  5.942635948E+01 -2.128500125E+02  2.454231249E+02  0.000000000E+00  0.00000E+00  9.000E+00
#rwgt            1           1   7.5298321852076300E-002          26      173266           0
</event>
<event>
      5   9999  3.70600E-02  2.77275E+01 -1.00000E+00  1.55452E-01
      21    -1     0     0   502   501  0.000000000E+00  0.000000000E+00  9.738206381E+01  9.738206381E+01  0.000000000E+00  0.00000E+00  9.000E+00
      21    -1     0     0   511   502  0.000000000E+00  0.000000000E+00 -4.688464619E+02  4.688464619E+02  0.000000000E+00  0.00000E+00  9.000E+00
      25     1     1     2     0     0  5.745410564E+01 -7.970698300E+01 -2.391457444E+01  1.607827238E+02  1.250000000E+02  0.00000E+00  9.000E+00
      25     1     1     2     0     0 -6.267920725E+01  5.247627909E+01 -1.723322188E+02  2.280478821E+02  1.250000000E+02  0.00000E+00  9.000E+00
      21     1     1     2   511   501  5.225101616E+00  2.723070391E+01 -1.752176048E+02  1.773979198E+02  0.000000000E+00  0.00000E+00  9.000E+00
#rwgt            1           1   3.6504517646178521E-002          26      173705           0
</event>
<event>
      5   9999  3.70600E-02  1.82791E+02 -1.00000E+00  1.13088E-01
      21    -1     0     0   502   512  0.000000000E+00  0.000000000E+00  1.545591021E+02  1.545591021E+02  0.000000000E+00  0.00000E+00  9.000E+00
      21    -1     0     0   501   502  0.000000000E+00  0.000000000E+00 -9.652807157E+02  9.652807157E+02  0.000000000E+00  0.00000E+00  9.000E+00
      25     1     1     2     0     0  5.078642447E+01  1.076261598E+02 -6.681278158E+02  6.900597289E+02  1.250000000E+02  0.00000E+00  9.000E+00
      25     1     1     2     0     0 -7.848533316E+01  7.305388331E+01 -1.791769525E+02  2.433643312E+02  1.250000000E+02  0.00000E+00  9.000E+00
      21     1     1     2   501   512  2.769890869E+01 -1.806800431E+02  3.658315479E+01  1.864157577E+02  4.839368613E-06  0.00000E+00  9.000E+00
#rwgt            1           1   4.7992915809208947E-002          26      174041           0
</event>
<event>
      5   9999  3.70600E-02  1.36491E+02 -1.00000E+00  1.18040E-01
      -2    -1     0     0     0   501  0.000000000E+00  0.000000000E+00  1.142371048E+03  1.142371048E+03  0.000000000E+00  0.00000E+00  9.000E+00
      21    -1     0     0   501   502  0.000000000E+00  0.000000000E+00 -3.518101269E+02  3.518101269E+02  0.000000000E+00  0.00000E+00  9.000E+00
      25     1     1     2     0     0 -1.174687685E+02 -3.707205037E+01  1.197322588E+02  2.124477872E+02  1.250000000E+02  0.00000E+00  9.000E+00
      25     1     1     2     0     0 -1.786999715E+01  1.937801973E+01 -2.870424718E+02  3.141866086E+02  1.250000000E+02  0.00000E+00  9.000E+00
      -2     1     1     2     0   502  1.353387656E+02  1.769403063E+01  9.578711344E+02  9.675467794E+02  0.000000000E+00  0.00000E+00  9.000E+00
#rwgt            1           1   4.5999345869458953E-002          26      174111           0
</event>
<event>
      5   9999  3.70600E-02  7.67888E+01 -1.00000E+00  1.29215E-01
      21    -1     0     0   502   511  0.000000000E+00  0.000000000E+00  3.248419202E+02  3.248419202E+02  0.000000000E+00  0.00000E+00  9.000E+00
      21    -1     0     0   501   502  0.000000000E+00  0.000000000E+00 -1.516040795E+03  1.516040795E+03  0.000000000E+00  0.00000E+00  9.000E+00
      25     1     1     2     0     0  1.492002047E+02  1.174797010E+01 -1.125355382E+01  1.953211672E+02  1.250000000E+02  0.00000E+00  9.000E+00
      25     1     1     2     0     0 -9.628672745E+01 -6.739579124E+01 -1.401042490E+03  1.411509258E+03  1.250000000E+02  0.00000E+00  9.000E+00
      21     1     1     2   501   511 -5.291347730E+01  5.564782114E+01  2.210971693E+02  2.340522897E+02  0.000000000E+00  0.00000E+00  9.000E+00
#rwgt            1           1   4.9477220926803962E-002          26      174183           0
</event>
<event>
      5   9999  3.70600E-02  1.19103E+01 -1.00000E+00  1.87367E-01
      21    -1     0     0   502   512  0.000000000E+00  0.000000000E+00  3.145049601E+02  3.145049601E+02  0.000000000E+00  0.00000E+00  9.000E+00
      21    -1     0     0   501   502  0.000000000E+00  0.000000000E+00 -1.327105054E+02  1.327105054E+02  0.000000000E+00  0.00000E+00  9.000E+00
      25     1     1     2     0     0 -1.108731728E+02 -4.799557905E+01  4.932041138E+01  1.807040094E+02  1.250000000E+02  0.00000E+00  9.000E+00
      25     1     1     2     0     0  1.221642163E+02  4.420512296E+01  5.552062833E+01  1.886418002E+02  1.250000000E+02  0.00000E+00  9.000E+00
      21     1     1     2   501   512 -1.129104347E+01  3.790456087E+00  7.695341503E+01  7.786965586E+01  9.536743164E-07  0.00000E+00  9.000E+00
#rwgt            1           1   2.1007461476260730E-002          26      174732           0
</event>
<event>
      5   9999  3.70600E-02  9.76047E+01 -1.00000E+00  1.24302E-01
       2    -1     0     0   502     0  0.000000000E+00  0.000000000E+00  4.455573234E+02  4.455573234E+02  0.000000000E+00  0.00000E+00  9.000E+00
      21    -1     0     0   501   502  0.000000000E+00  0.000000000E+00 -5.892528221E+02  5.892528221E+02  0.000000000E+00  0.00000E+00  9.000E+00
      25     1     1     2     0     0 -1.131421507E+02 -1.844173870E+02 -1.362069723E+02  2.845843604E+02  1.250000000E+02  0.00000E+00  9.000E+00
      25     1     1     2     0     0  2.022154766E+02  1.445098382E+02 -3.192974126E+02  4.234973789E+02  1.250000000E+02  0.00000E+00  9.000E+00
       2     1     1     2   501     0 -8.907332594E+01  3.990754878E+01  3.118088863E+02  3.267284062E+02  3.814697266E-06  0.00000E+00  9.000E+00
#rwgt            1           1   4.3163358625066248E-002          26      175885           0
</event>
<event>
      5   9999  3.70600E-02  4.13877E+01 -1.00000E+00  1.43925E-01
      21    -1     0     0   511   501  0.000000000E+00  0.000000000E+00  7.040299638E+02  7.040299638E+02  0.000000000E+00  0.00000E+00  9.000E+00
      21    -1     0     0   501   502  0.000000000E+00  0.000000000E+00 -4.907691347E+01  4.907691347E+01  0.000000000E+00  0.00000E+00  9.000E+00
      25     1     1     2     0     0 -4.721634093E+01 -6.520708044E+01  3.725298841E+02  4.011045509E+02  1.250000000E+02  0.00000E+00  9.000E+00
      25     1     1     2     0     0  4.780984074E+01  2.382365345E+01  1.105410049E+02  1.752074801E+02  1.250000000E+02  0.00000E+00  9.000E+00
      21     1     1     2   511   502 -5.934998046E-01  4.138342699E+01  1.718821613E+02  1.767948462E+02  1.907348633E-06  0.00000E+00  9.000E+00
#rwgt            1           1   4.7398643872920511E-002          26      176228           0
</event>
<event>
      5   9999  3.70600E-02  7.76342E+01 -1.00000E+00  1.28982E-01
      21    -1     0     0   502   512  0.000000000E+00  0.000000000E+00  9.930780889E+02  9.930780889E+02  0.000000000E+00  0.00000E+00  9.000E+00
      21    -1     0     0   501   502  0.000000000E+00  0.000000000E+00 -2.409373621E+02  2.409373621E+02  0.000000000E+00  0.00000E+00  9.000E+00
      25     1     1     2     0     0  1.322608671E+02  1.910643794E+02  2.082965113E+02  3.361710437E+02  1.250000000E+02  0.00000E+00  9.000E+00
      25     1     1     2     0     0 -1.571298726E+02 -2.646075440E+02 -1.609179439E+01  3.325520937E+02  1.250000000E+02  0.00000E+00  9.000E+00
      21     1     1     2   501   512  2.486900556E+01  7.354316461E+01  5.599360100E+02  5.652923136E+02  0.000000000E+00  0.00000E+00  9.000E+00
#rwgt            1           1   1.4566295409092218E-002          26      176619           0
</event>
<event>
      5   9999  3.70600E-02  2.72675E+01 -1.00000E+00  1.55975E-01
      21    -1     0     0   511   501  0.000000000E+00  0.000000000E+00  3.277479770E+02  3.277479770E+02  0.000000000E+00  0.00000E+00  9.000E+00
      21    -1     0     0   501   502  0.000000000E+00  0.000000000E+00 -2.011924695E+02  2.011924695E+02  0.000000000E+00  0.00000E+00  9.000E+00
      25     1     1     2     0     0  4.001658809E+01  1.867446890E+02  6.583115739E+01  2.375576719E+02  1.250000000E+02  0.00000E+00  9.000E+00
      25     1     1     2     0     0 -3.918094249E+01 -2.139993847E+02  3.400071991E+01  2.532033410E+02  1.250000000E+02  0.00000E+00  9.000E+00
      21     1     1     2   511   502 -8.356455996E-01  2.725469571E+01  2.672363019E+01  3.817943363E+01  4.768371582E-07  0.00000E+00  9.000E+00
#rwgt            1           1   3.3737971238935821E-002          26      176766           0
</event>
<event>
      5   9999  3.70600E-02  8.62922E+01 -1.00000E+00  1.26776E-01
      21    -1     0     0   502   501  0.000000000E+00  0.000000000E+00  4.898306747E+01  4.898306747E+01  0.000000000E+00  0.00000E+00  9.000E+00
      21    -1     0     0   512   502  0.000000000E+00  0.000000000E+00 -1.242680541E+03  1.242680541E+03  0.000000000E+00  0.00000E+00  9.000E+00
      25     1     1     2     0     0 -7.420169584E+01  1.346169817E+02 -2.970208854E+02  3.570350540E+02  1.250000000E+02  0.00000E+00  9.000E+00
      25     1     1     2     0     0  2.575934135E-01 -9.013527794E+01 -3.681494611E+02  3.991033204E+02  1.250000000E+02  0.00000E+00  9.000E+00
      21     1     1     2   512   501  7.394410243E+01 -4.448170376E+01 -5.285271268E+02  5.355252338E+02  1.078959322E-05  0.00000E+00  9.000E+00
#rwgt            1           1   3.8887321649492747E-002          26      177216           0
</event>
<event>
      5   9999  3.70600E-02  1.01838E+02 -1.00000E+00  1.23471E-01
      21    -1     0     0   502   501  0.000000000E+00  0.000000000E+00  2.411017057E+02  2.411017057E+02  0.000000000E+00  0.00000E+00  9.000E+00
      -3    -1     0     0     0   502  0.000000000E+00  0.000000000E+00 -3.635992538E+02  3.635992538E+02  0.000000000E+00  0.00000E+00  9.000E+00
      25     1     1     2     0     0  1.708961820E+01  9.630638186E+01  1.490568554E+02  2.177381923E+02  1.250000000E+02  0.00000E+00  9.000E+00
      25     1     1     2     0     0 -9.841284365E+01 -3.500743860E+01 -1.120267747E+02  1.977008012E+02  1.250000000E+02  0.00000E+00  9.000E+00
      -3     1     1     2     0   501  8.132322546E+01 -6.129894327E+01 -1.595276287E+02  1.892619660E+02  1.907348633E-06  0.00000E+00  9.000E+00
#rwgt            1           1   4.8489318252378885E-002          26      177506           0
</event>
<event>
      5   9999  3.70600E-02  2.60218E+01 -1.00000E+00  1.57456E-01
      21    -1     0     0   511   501  0.000000000E+00  0.000000000E+00  2.627273565E+02  2.627273565E+02  0.000000000E+00  0.00000E+00  9.000E+00
      21    -1     0     0   501   502  0.000000000E+00  0.000000000E+00 -6.365769892E+02  6.365769892E+02  0.000000000E+00  0.00000E+00  9.000E+00
      25     1     1     2     0     0 -1.237261603E+02 -1.942209643E+02 -3.316860379E+02  4.226944209E+02  1.250000000E+02  0.00000E+00  9.000E+00
      25     1     1     2     0     0  1.494573688E+02  1.980992157E+02 -1.834442432E+02  3.329528416E+02  1.250000000E+02  0.00000E+00  9.000E+00
      21     1     1     2   511   502 -2.573120854E+01 -3.878251391E+00  1.412806485E+02  1.436570832E+02  4.264961200E-06  0.00000E+00  9.000E+00
#rwgt            1           1   3.5175083012670826E-002          26      177694           0
</event>
<event>
      5   9999  3.70600E-02  4.86552E+01 -1.00000E+00  1.39752E-01
      21    -1     0     0   512   501  0.000000000E+00  0.000000000E+00  6.489816917E+02  6.489816917E+02  0.000000000E+00  0.00000E+00  9.000E+00
      21    -1     0     0   501   502  0.000000000E+00  0.000000000E+00 -1.627332167E+02  1.627332167E+02  0.000000000E+00  0.00000E+00  9.000E+00
      25     1     1     2     0     0  5.510069867E+01 -2.004634681E+02  4.440747377E+01  2.466145023E+02  1.250000000E+02  0.00000E+00  9.000E+00
      25     1     1     2     0     0 -5.899186643E+01  2.489628092E+02  2.933002254E+02  4.087940104E+02  1.250000000E+02  0.00000E+00  9.000E+00
      21     1     1     2   512   502  3.891167764E+00 -4.849934112E+01  1.485407757E+02  1.563063957E+02  0.000000000E+00  0.00000E+00  9.000E+00
#rwgt            2          11   1.5069101104711851E-003          26      177950           0
</event>
<event>
      5   9999  3.70600E-02  7.54933E+01 -1.00000E+00  1.29578E-01
      21    -1     0     0   502   501  0.000000000E+00  0.000000000E+00  5.458756681E+02  5.458756681E+02  0.000000000E+00  0.00000E+00  9.000E+00
      21    -1     0     0   511   502  0.000000000E+00  0.000000000E+00 -8.800845081E+01  8.800845081E+01  0.000000000E+00  0.00000E+00  9.000E+00
      25     1     1     2     0     0 -6.475682725E+01 -5.654943765E+01  2.319251869E+02  2.771381927E+02  1.250000000E+02  0.00000E+00  9.000E+00
      25     1     1     2     0     0  9.218069992E+01  1.268855973E+02  1.663921440E+02  2.605927509E+02  1.250000000E+02  0.00000E+00  9.000E+00
      21     1     1     2   511   501 -2.742387267E+01 -7.033615963E+01  5.954988646E+01  9.615317530E+01  1.348699152E-06  0.00000E+00  9.000E+00
#rwgt            1           1   4.0819490223856753E-002          26      178165           0
</event>
<event>
      5   9999  3.70600E-02  7.51787E+01 -1.00000E+00  1.29668E-01
      21    -1     0     0   502   501  0.000000000E+00  0.000000000E+00  8.512352761E+02  8.512352761E+02  0.000000000E+00  0.00000E+00  9.000E+00
      21    -1     0     0   512   502  0.000000000E+00  0.000000000E+00 -1.048387390E+02  1.048387390E+02  0.000000000E+00  0.00000E+00  9.000E+00
      25     1     1     2     0     0  4.548847575E+01 -2.223174619E+02  1.764400041E+02  3.134490873E+02  1.250000000E+02  0.00000E+00  9.000E+00
      25     1     1     2     0     0  8.202794906E+00  1.696954095E+02  4.867549211E+02  5.304895579E+02  1.250000000E+02  0.00000E+00  9.000E+00
      21     1     1     2   512   501 -5.369127065E+01  5.262205239E+01  8.320161195E+01  1.121353699E+02  0.000000000E+00  0.00000E+00  9.000E+00
#rwgt            1           1   3.5447101355115265E-002          26      178290           0
</event>
<event>
      5   9999  3.70600E-02  9.32102E+01 -1.00000E+00  1.25215E-01
      21    -1     0     0   502   501  0.000000000E+00  0.000000000E+00  4.829818398E+02  4.829818398E+02  0.000000000E+00  0.00000E+00  9.000E+00
      21    -1     0     0   501   511  0.000000000E+00  0.000000000E+00 -1.885970829E+02  1.885970829E+02  0.000000000E+00  0.00000E+00  9.000E+00
      25     1     1     2     0     0 -1.026908791E+02 -5.416398047E+01 -9.128879995E+01  1.934884969E+02  1.250000000E+02  0.00000E+00  9.000E+00
      25     1     1     2     0     0  7.167682246E+01 -3.373521050E+01  3.468809964E+02  3.771300266E+02  1.250000000E+02  0.00000E+00  9.000E+00
      21     1     1     2   502   511  3.101405663E+01  8.789919097E+01  3.879256048E+01  1.009603993E+02  2.286830675E-06  0.00000E+00  9.000E+00
#rwgt            1           1   5.1906108434272902E-002          26      178519           0
</event>
<event>
      5   9999  3.70600E-02  6.40089E+01 -1.00000E+00  1.33217E-01
      21    -1     0     0   502   501  0.000000000E+00  0.000000000E+00  9.226870069E+01  9.226870069E+01  0.000000000E+00  0.00000E+00  9.000E+00
      21    -1     0     0   501   512  0.000000000E+00  0.000000000E+00 -1.049657325E+03  1.049657325E+03  0.000000000E+00  0.00000E+00  9.000E+00
      25     1     1     2     0     0 -1.146075500E+01  2.417771845E+01 -7.014228399E+02  7.129760945E+02  1.250000000E+02  0.00000E+00  9.000E+00
      25     1     1     2     0     0  6.981720186E+01 -5.047725081E+01  1.309758896E+01  1.523776275E+02  1.250000000E+02  0.00000E+00  9.000E+00
      21     1     1     2   502   512 -5.835644686E+01  2.629953236E+01 -2.690633737E+02  2.765723041E+02  0.000000000E+00  0.00000E+00  9.000E+00
#rwgt            1           1   3.0366146588471012E-002          26      179211           0
</event>
<event>
      5   9999  3.70600E-02  1.05642E+02 -1.00000E+00  1.22764E-01
      21    -1     0     0   511   501  0.000000000E+00  0.000000000E+00  1.484442664E+03  1.484442664E+03  0.000000000E+00  0.00000E+00  9.000E+00
      21    -1     0     0   501   502  0.000000000E+00  0.000000000E+00 -8.870109279E+01  8.870109279E+01  0.000000000E+00  0.00000E+00  9.000E+00
      25     1     1     2     0     0  4.653530305E+00  1.763277818E+02  5.569690362E+02  5.974551441E+02  1.250000000E+02  0.00000E+00  9.000E+00
      25     1     1     2     0     0 -7.212363260E+01 -2.576168652E+02  2.797084070E+02  4.067309437E+02  1.250000000E+02  0.00000E+00  9.000E+00
      21     1     1     2   511   502  6.747010229E+01  8.128908343E+01  5.590641283E+02  5.689576692E+02  7.629394531E-06  0.00000E+00  9.000E+00
#rwgt            1           1   4.2762011856153734E-002          26      179553           0
</event>
<event>
      5   9999  3.70600E-02  3.59307E+01 -1.00000E+00  1.47788E-01
      21    -1     0     0   502   501  0.000000000E+00  0.000000000E+00  3.600251305E+02  3.600251305E+02  0.000000000E+00  0.00000E+00  9.000E+00
      21    -1     0     0   501   512  0.000000000E+00  0.000000000E+00 -1.724407759E+02  1.724407759E+02  0.000000000E+00  0.00000E+00  9.000E+00
      25     1     1     2     0     0  1.529315556E+02 -9.593152979E+01  1.370706659E+02  2.588518622E+02  1.250000000E+02  0.00000E+00  9.000E+00
      25     1     1     2     0     0 -1.463495062E+02  1.312542099E+02  4.265290855E+01  2.368335200E+02  1.250000000E+02  0.00000E+00  9.000E+00
      21     1     1     2   502   512 -6.582049387E+00 -3.532268008E+01  7.860780102E+00  3.678052428E+01  2.384185791E-07  0.00000E+00  9.000E+00
#rwgt            1           1   2.4940964549034838E-002          26      179774           0
</event>
<event>
      5   9999  3.70600E-02  1.31869E+01 -1.00000E+00  1.82818E-01
      21    -1     0     0   502   511  0.000000000E+00  0.000000000E+00  6.883197337E+01  6.883197337E+01  0.000000000E+00  0.00000E+00  9.000E+00
      21    -1     0     0   501   502  0.000000000E+00  0.000000000E+00 -5.080862885E+02  5.080862885E+02  0.000000000E+00  0.00000E+00  9.000E+00
      25     1     1     2     0     0 -4.262663033E+01  1.259080333E+02 -2.159160366E+02  2.826917002E+02  1.250000000E+02  0.00000E+00  9.000E+00
      25     1     1     2     0     0  3.061994770E+01 -1.204552452E+02 -2.170654112E+02  2.796237472E+02  1.250000000E+02  0.00000E+00  9.000E+00
      21     1     1     2   501   511  1.200668263E+01 -5.452788123E+00 -6.272867307E+00  1.460281447E+01  1.460009660E-07  0.00000E+00  9.000E+00
#rwgt            2          11   5.0671864528974821E-003          26      179986           0
</event>
<event>
      5   9999  3.70600E-02  1.39354E+02 -1.00000E+00  1.17673E-01
      21    -1     0     0   502   512  0.000000000E+00  0.000000000E+00  4.032467754E+02  4.032467754E+02  0.000000000E+00  0.00000E+00  9.000E+00
      21    -1     0     0   501   502  0.000000000E+00  0.000000000E+00 -1.312323579E+02  1.312323579E+02  0.000000000E+00  0.00000E+00  9.000E+00
      25     1     1     2     0     0  3.376815393E+01  5.188978172E+01  6.958651838E+01  1.558849615E+02  1.250000000E+02  0.00000E+00  9.000E+00
      25     1     1     2     0     0  1.036476582E+02 -7.504882677E+01  9.435807565E+01  2.022464088E+02  1.250000000E+02  0.00000E+00  9.000E+00
      21     1     1     2   501   512 -1.374158121E+02  2.315904506E+01  1.080698234E+02  1.763477630E+02  1.907348633E-06  0.00000E+00  9.000E+00
#rwgt            2          11   3.0340921914278562E-003          26      180126           0
</event>
<event>
      5   9999  3.70600E-02  4.16529E+01 -1.00000E+00  1.43756E-01
      21    -1     0     0   511   501  0.000000000E+00  0.000000000E+00  3.373930383E+02  3.373930383E+02  0.000000000E+00  0.00000E+00  9.000E+00
      21    -1     0     0   501   502  0.000000000E+00  0.000000000E+00 -1.548068242E+02  1.548068242E+02  0.000000000E+00  0.00000E+00  9.000E+00
      25     1     1     2     0     0  1.252843439E+02 -5.384233361E+01  1.587931015E+01  1.856672190E+02  1.250000000E+02  0.00000E+00  9.000E+00
      25     1     1     2     0     0 -1.669265630E+02  5.290089190E+01  1.328738890E+02  2.528704257E+02  1.250000000E+02  0.00000E+00  9.000E+00
      21     1     1     2   511   502  4.164221905E+01  9.414417138E-01  3.383301498E+01  5.366221783E+01  8.259061849E-07  0.00000E+00  9.000E+00
#rwgt            1           1   3.9956669275080174E-002          26      180326           0
</event>
<event>
      5   9999  3.70600E-02  2.88018E+01 -1.00000E+00  1.54277E-01
      21    -1     0     0   502   501  0.000000000E+00  0.000000000E+00  5.433826701E+01  5.433826701E+01  0.000000000E+00  0.00000E+00  9.000E+00
       2    -1     0     0   501     0  0.000000000E+00  0.000000000E+00 -1.108378382E+03  1.108378382E+03  0.000000000E+00  0.00000E+00  9.000E+00
      25     1     1     2     0     0  6.740479588E+01 -1.335758457E+02 -7.105074562E+02  7.367711710E+02  1.250000000E+02  0.00000E+00  9.000E+00
      25     1     1     2     0     0 -9.165485550E+01  1.491153537E+02 -2.591251428E+02  3.367593219E+02  1.250000000E+02  0.00000E+00  9.000E+00
       2     1     1     2   502     0  2.425005962E+01 -1.553950796E+01 -8.440751628E+01  8.918615646E+01  1.348699152E-06  0.00000E+00  9.000E+00
#rwgt            1           1   4.0630080026436553E-002          26      181004           0
</event>
<event>
      5   9999  3.70600E-02  2.73576E+01 -1.00000E+00  1.55871E-01
      21    -1     0     0   511   501  0.000000000E+00  0.000000000E+00  2.955883222E+02  2.955883222E+02  0.000000000E+00  0.00000E+00  9.000E+00
      21    -1     0     0   501   502  0.000000000E+00  0.000000000E+00 -1.971194177E+02  1.971194177E+02  0.000000000E+00  0.00000E+00  9.000E+00
      25     1     1     2     0     0  5.356299536E+01 -1.028502286E+02  2.045128402E+01  1.717277468E+02  1.250000000E+02  0.00000E+00  9.000E+00
      25     1     1     2     0     0 -2.869585161E+01  1.142547627E+02 -5.872716477E+01  1.815254323E+02  1.250000000E+02  0.00000E+00  9.000E+00
      21     1     1     2   511   502 -2.486714375E+01 -1.140453404E+01  1.367447853E+02  1.394545608E+02  2.697398305E-06  0.00000E+00  9.000E+00
#rwgt            1           1   1.8629678227055801E-002          26      181342           0
</event>
<event>
      5   9999  3.70600E-02  1.11452E+02 -1.00000E+00  1.21745E-01
      21    -1     0     0   512   501  0.000000000E+00  0.000000000E+00  5.245957669E+02  5.245957669E+02  0.000000000E+00  0.00000E+00  9.000E+00
      21    -1     0     0   501   502  0.000000000E+00  0.000000000E+00 -1.009674374E+03  1.009674374E+03  0.000000000E+00  0.00000E+00  9.000E+00
      25     1     1     2     0     0  1.471934291E+02  4.399073506E+01 -2.443141898E+02  3.145083683E+02  1.250000000E+02  0.00000E+00  9.000E+00
      25     1     1     2     0     0 -6.283364782E+01  2.884510322E+01 -7.167787097E+02  7.308740151E+02  1.250000000E+02  0.00000E+00  9.000E+00
      21     1     1     2   512   502 -8.435978128E+01 -7.283583828E+01  4.760142929E+02  4.888877571E+02  7.629394531E-06  0.00000E+00  9.000E+00
#rwgt            1           1   5.1549236746450323E-002          26      181758           0
</event>
<event>
      5   9999  3.70600E-02  4.02278E+01 -1.00000E+00  1.44685E-01
      21    -1     0     0   502   511  0.000000000E+00  0.000000000E+00  7.609520578E+01  7.609520578E+01  0.000000000E+00  0.00000E+00  9.000E+00
      21    -1     0     0   501   502  0.000000000E+00  0.000000000E+00 -1.294023070E+03  1.294023070E+03  0.000000000E+00  0.00000E+00  9.000E+00
      25     1     1     2     0     0  1.554262622E+02 -1.373510575E+02 -2.348801648E+02  3.373667556E+02  1.250000000E+02  0.00000E+00  9.000E+00
      25     1     1     2     0     0 -1.460161737E+02  1.764627676E+02 -9.315512096E+02  9.674050276E+02  1.250000000E+02  0.00000E+00  9.000E+00
      21     1     1     2   501   511 -9.410088443E+00 -3.911171007E+01 -5.149649006E+01  6.534649277E+01  1.168007728E-06  0.00000E+00  9.000E+00
#rwgt            1           1   3.8196647453348199E-002          26      182180           0
</event>
<event>
      5   9999  3.70600E-02  6.69379E+01 -1.00000E+00  1.32210E-01
      21    -1     0     0   512   501  0.000000000E+00  0.000000000E+00  2.382184831E+02  2.382184831E+02  0.000000000E+00  0.00000E+00  9.000E+00
      21    -1     0     0   501   502  0.000000000E+00  0.000000000E+00 -1.826534325E+02  1.826534325E+02  0.000000000E+00  0.00000E+00  9.000E+00
      25     1     1     2     0     0 -4.758866287E+01  8.192390979E+01  8.054474248E+01  1.763197759E+02  1.250000000E+02  0.00000E+00  9.000E+00
      25     1     1     2     0     0  1.025599975E+02 -4.372926395E+01 -4.720103927E+01  1.740222391E+02  1.250000000E+02  0.00000E+00  9.000E+00
      21     1     1     2   512   502 -5.497133458E+01 -3.819464584E+01  2.222134745E+01  7.052990060E+01  1.118282261E-06  0.00000E+00  9.000E+00
#rwgt            1           1   4.2665664933865290E-002          26      182430           0
</event>
<event>
      5   9999 -3.70600E-02  1.48290E+02 -1.00000E+00  1.16590E-01
      21    -1     0     0   502   501  0.000000000E+00  0.000000000E+00  5.867533083E+02  5.867533083E+02  0.000000000E+00  0.00000E+00  9.000E+00
       1    -1     0     0   501     0  0.000000000E+00  0.000000000E+00 -4.041790701E+02  4.041790701E+02  0.000000000E+00  0.00000E+00  9.000E+00
      25     1     1     2     0     0 -1.474336294E+02  3.963606579E+02  2.484662797E+02  5.061609807E+02  1.250000000E+02  0.00000E+00  9.000E+00
      25     1     1     2     0     0  1.743072310E+02 -2.505257809E+02 -6.668544551E+01  3.364790132E+02  1.250000000E+02  0.00000E+00  9.000E+00
       1     1     1     2   502     0 -2.687360163E+01 -1.458348770E+02  7.934040302E-01  1.482923845E+02  1.443068026E-06  0.00000E+00  9.000E+00
#rwgt            1           1 -0.18980747197063133               26      182717           0
</event>
<event>
      5   9999  3.70600E-02  1.05552E+02 -1.00000E+00  1.22780E-01
       2    -1     0     0   502     0  0.000000000E+00  0.000000000E+00  6.674812901E+02  6.674812901E+02  0.000000000E+00  0.00000E+00  9.000E+00
      21    -1     0     0   501   502  0.000000000E+00  0.000000000E+00 -4.285917578E+02  4.285917578E+02  0.000000000E+00  0.00000E+00  9.000E+00
      25     1     1     2     0     0  7.017154740E+01  4.179189492E+01  1.716488082E+01  1.503005046E+02  1.250000000E+02  0.00000E+00  9.000E+00
      25     1     1     2     0     0 -1.714706102E+02 -7.145188978E+01 -3.218351537E+02  3.920591905E+02  1.250000000E+02  0.00000E+00  9.000E+00
       2     1     1     2   501     0  1.012990628E+02  2.965999486E+01  5.435598051E+02  5.537133528E+02  7.629394531E-06  0.00000E+00  9.000E+00
#rwgt            1           1   2.3669565459010292E-002          26      183050           0
</event>
<event>
      5   9999  3.70600E-02  8.24627E+01 -1.00000E+00  1.27714E-01
      21    -1     0     0   502   501  0.000000000E+00  0.000000000E+00  2.134115543E+03  2.134115543E+03  0.000000000E+00  0.00000E+00  9.000E+00
      21    -1     0     0   511   502  0.000000000E+00  0.000000000E+00 -6.417477110E+01  6.417477110E+01  0.000000000E+00  0.00000E+00  9.000E+00
      25     1     1     2     0     0  1.542403258E+02 -2.328546279E+02  1.182737199E+03  1.221680661E+03  1.250000000E+02  0.00000E+00  9.000E+00
      25     1     1     2     0     0 -8.963682924E+01  1.816053948E+02  8.559544240E+02  8.884245925E+02  1.250000000E+02  0.00000E+00  9.000E+00
      21     1     1     2   511   501 -6.460349652E+01  5.124923307E+01  3.124914945E+01  8.818506106E+01  3.903080355E-06  0.00000E+00  9.000E+00
#rwgt            1           1   4.0093414460425796E-002          26      183275           0
</event>
<event>
      5   9999  3.70600E-02  2.61808E+01 -1.00000E+00  1.57261E-01
      21    -1     0     0   502   501  0.000000000E+00  0.000000000E+00  1.817127227E+02  1.817127227E+02  0.000000000E+00  0.00000E+00  9.000E+00
      21    -1     0     0   501   512  0.000000000E+00  0.000000000E+00 -4.413820538E+02  4.413820538E+02  0.000000000E+00  0.00000E+00  9.000E+00
      25     1     1     2     0     0 -1.383046461E+01 -1.601815803E+02  8.165442868E+01  2.194125478E+02  1.250000000E+02  0.00000E+00  9.000E+00
      25     1     1     2     0     0  2.942970419E+01  1.391554675E+02 -3.006604525E+02  3.553196580E+02  1.250000000E+02  0.00000E+00  9.000E+00
      21     1     1     2   502   512 -1.559923958E+01  2.102611275E+01 -4.066330726E+01  4.836257076E+01  9.536743164E-07  0.00000E+00  9.000E+00
#rwgt            1           1   3.7761306938478109E-002          26      183449           0
</event>
<event>
      5   9999  3.70600E-02  3.63048E+01 -1.00000E+00  1.47498E-01
      21    -1     0     0   502   501  0.000000000E+00  0.000000000E+00  3.442425039E+02  3.442425039E+02  0.000000000E+00  0.00000E+00  9.000E+00
      21    -1     0     0   501   511  0.000000000E+00  0.000000000E+00 -7.325043220E+02  7.325043220E+02  0.000000000E+00  0.00000E+00  9.000E+00
      25     1     1     2     0     0  6.950212648E+01  9.203791724E+01  2.315299185E+02  2.872849229E+02  1.250000000E+02  0.00000E+00  9.000E+00
      25     1     1     2     0     0 -9.044691545E+01 -1.216918627E+02 -3.027032256E+01  1.988236565E+02  1.250000000E+02  0.00000E+00  9.000E+00
      21     1     1     2   502   511  2.094478897E+01  2.965394546E+01 -5.895214140E+02  5.906382465E+02  1.078959322E-05  0.00000E+00  9.000E+00
#rwgt            1           1   3.4394571852536901E-002          26      183907           0
</event>
<event>
      5   9999  3.70600E-02  9.48649E+00 -1.00000E+00  1.98437E-01
      21    -1     0     0   512   501  0.000000000E+00  0.000000000E+00  1.323541236E+02  1.323541236E+02  0.000000000E+00  0.00000E+00  9.000E+00
      21    -1     0     0   501   502  0.000000000E+00  0.000000000E+00 -1.059867290E+03  1.059867290E+03  0.000000000E+00  0.00000E+00  9.000E+00
      25     1     1     2     0     0  4.600668458E+01 -1.439249975E+02 -3.653587605E+02  4.146601546E+02  1.250000000E+02  0.00000E+00  9.000E+00
      25     1     1     2     0     0 -4.100969106E+01  1.358612739E+02 -6.562666126E+02  6.829721424E+02  1.250000000E+02  0.00000E+00  9.000E+00
      21     1     1     2   512   502 -4.996993520E+00  8.063723622E+00  9.411220657E+01  9.458911675E+01  0.000000000E+00  0.00000E+00  9.000E+00
#rwgt            1           1   2.4790621401106924E-002          26      184852           0
</event>
<event>
      5   9999  3.70600E-02  1.96448E+01 -1.00000E+00  1.67011E-01
      21    -1     0     0   502   501  0.000000000E+00  0.000000000E+00  1.092972338E+03  1.092972338E+03  0.000000000E+00  0.00000E+00  9.000E+00
      21    -1     0     0   511   502  0.000000000E+00  0.000000000E+00 -5.314278687E+01  5.314278687E+01  0.000000000E+00  0.00000E+00  9.000E+00
      25     1     1     2     0     0 -1.098012094E+02 -7.086190953E+01  3.410472844E+02  3.860258618E+02  1.250000000E+02  0.00000E+00  9.000E+00
      25     1     1     2     0     0  9.277769360E+01  8.066581481E+01  7.140179838E+02  7.352287775E+02  1.250000000E+02  0.00000E+00  9.000E+00
      21     1     1     2   511   501  1.702351579E+01 -9.803905275E+00 -1.523571728E+01  2.486048530E+01  6.078504936E-07  0.00000E+00  9.000E+00
#rwgt            1           1   3.2073757404509594E-002          26      185546           0
</event>
<event>
      5   9999  3.70600E-02  1.78069E+02 -1.00000E+00  1.13514E-01
      21    -1     0     0   502   501  0.000000000E+00  0.000000000E+00  6.835889762E+01  6.835889762E+01  0.000000000E+00  0.00000E+00  9.000E+00
      21    -1     0     0   501   512  0.000000000E+00  0.000000000E+00 -1.866871610E+03  1.866871610E+03  0.000000000E+00  0.00000E+00  9.000E+00
      25     1     1     2     0     0  1.316743351E+02  8.279939715E+01 -2.367232264E+02  3.096074234E+02  1.250000000E+02  0.00000E+00  9.000E+00
      25     1     1     2     0     0  2.099481069E+01 -1.744556412E+02 -4.423787715E+02  4.921377148E+02  1.250000000E+02  0.00000E+00  9.000E+00
      21     1     1     2   502   512 -1.526691458E+02  9.165624403E+01 -1.119410714E+03  1.133485369E+03  1.525878906E-05  0.00000E+00  9.000E+00
#rwgt            1           1   3.8263784621574544E-002          26      186749           0
</event>
<event>
      5   9999  3.70600E-02  9.69398E+01 -1.00000E+00  1.24436E-01
      21    -1     0     0   502   501  0.000000000E+00  0.000000000E+00  8.135815601E+02  8.135815601E+02  0.000000000E+00  0.00000E+00  9.000E+00
      21    -1     0     0   501   511  0.000000000E+00  0.000000000E+00 -1.099990169E+02  1.099990169E+02  0.000000000E+00  0.00000E+00  9.000E+00
      25     1     1     2     0     0  1.487761235E+02  2.159546481E+01  7.367078517E+01  2.089332037E+02  1.250000000E+02  0.00000E+00  9.000E+00
      25     1     1     2     0     0 -5.248766883E+01 -1.037638694E+01  5.969769647E+02  6.122655643E+02  1.250000000E+02  0.00000E+00  9.000E+00
      21     1     1     2   502   511 -9.628845464E+01 -1.121907787E+01  3.293479324E+01  1.023818090E+02  1.784161275E-06  0.00000E+00  9.000E+00
#rwgt            1           1   3.5572029464664139E-002          26      186797           0
</event>
<event>
      5   9999  3.70600E-02  8.69010E+01 -1.00000E+00  1.26632E-01
      21    -1     0     0   502   512  0.000000000E+00  0.000000000E+00  1.676135376E+02  1.676135376E+02  0.000000000E+00  0.00000E+00  9.000E+00
      21    -1     0     0   501   502  0.000000000E+00  0.000000000E+00 -6.177583223E+02  6.177583223E+02  0.000000000E+00  0.00000E+00  9.000E+00
      25     1     1     2     0     0  1.944650847E+02  6.948018039E+01 -1.231645635E+02  2.709957090E+02  1.250000000E+02  0.00000E+00  9.000E+00
      25     1     1     2     0     0 -2.717299124E+02 -2.970672137E+01 -2.967146920E+02  4.223555884E+02  1.250000000E+02  0.00000E+00  9.000E+00
      21     1     1     2   501   512  7.726482777E+01 -3.977345903E+01 -3.026552922E+01  9.202056244E+01  1.348699152E-06  0.00000E+00  9.000E+00
#rwgt            1           1   4.3219309619949860E-002          26      187294           0
</event>
<event>
      5   9999  3.70600E-02  2.47376E+01 -1.00000E+00  1.59092E-01
      21    -1     0     0   502   511  0.000000000E+00  0.000000000E+00  7.530559630E+01  7.530559630E+01  0.000000000E+00  0.00000E+00  9.000E+00
      21    -1     0     0   501   502  0.000000000E+00  0.000000000E+00 -3.984185026E+02  3.984185026E+02  0.000000000E+00  0.00000E+00  9.000E+00
      25     1     1     2     0     0  1.788107848E+01 -1.081491643E+02 -1.443984558E+02  2.202087390E+02  1.250000000E+02  0.00000E+00  9.000E+00
      25     1     1     2     0     0 -3.450475992E+00  8.805677232E+01 -1.659547044E+02  2.256808916E+02  1.250000000E+02  0.00000E+00  9.000E+00
      21     1     1     2   501   511 -1.443060249E+01  2.009239197E+01 -1.275974611E+01  2.783446827E+01  3.371747881E-07  0.00000E+00  9.000E+00
#rwgt            1           1   7.6508866918561874E-002          26      187480           0
</event>
<event>
      5   9999  3.70600E-02  1.47684E+02 -1.00000E+00  1.16661E-01
      21    -1     0     0   502   501  0.000000000E+00  0.000000000E+00  1.823593121E+02  1.823593121E+02  0.000000000E+00  0.00000E+00  9.000E+00
       2    -1     0     0   501     0  0.000000000E+00  0.000000000E+00 -6.950892687E+02  6.950892687E+02  0.000000000E+00  0.00000E+00  9.000E+00
      25     1     1     2     0     0 -2.078043586E+01  4.542324883E+01  1.035435034E+02  1.698274276E+02  1.250000000E+02  0.00000E+00  9.000E+00
      25     1     1     2     0     0 -5.878313650E+00  9.983486753E+01 -4.824811767E+02  5.083450021E+02  1.250000000E+02  0.00000E+00  9.000E+00
       2     1     1     2   502     0  2.665874950E+01 -1.452581164E+02 -1.337922834E+02  1.992761511E+02  4.672030912E-06  0.00000E+00  9.000E+00
#rwgt            1           1   2.9440514570951874E-002          26      187911           0
</event>
<event>
      5   9999  3.70600E-02  2.19800E+01 -1.00000E+00  1.63053E-01
      21    -1     0     0   511   501  0.000000000E+00  0.000000000E+00  6.918888767E+02  6.918888767E+02  0.000000000E+00  0.00000E+00  9.000E+00
      21    -1     0     0   501   502  0.000000000E+00  0.000000000E+00 -8.254180121E+01  8.254180121E+01  0.000000000E+00  0.00000E+00  9.000E+00
      25     1     1     2     0     0 -4.060708351E+01  1.272388797E+02  4.687937956E+02  5.032209163E+02  1.250000000E+02  0.00000E+00  9.000E+00
      25     1     1     2     0     0  4.580675582E+01 -1.058827754E+02  4.894704317E+01  1.770034859E+02  1.250000000E+02  0.00000E+00  9.000E+00
      21     1     1     2   511   502 -5.199672307E+00 -2.135610429E+01  9.160623664E+01  9.420627566E+01  1.907348633E-06  0.00000E+00  9.000E+00
#rwgt            1           1   4.1927069935233742E-002          26      188245           0
</event>
<event>
      5   9999  3.70600E-02  1.96411E+01 -1.00000E+00  1.67017E-01
      21    -1     0     0   502   501  0.000000000E+00  0.000000000E+00  2.660485452E+03  2.660485452E+03  0.000000000E+00  0.00000E+00  9.000E+00
      21    -1     0     0   512   502  0.000000000E+00  0.000000000E+00 -3.441304955E+01  3.441304955E+01  0.000000000E+00  0.00000E+00  9.000E+00
      25     1     1     2     0     0  1.447254608E+02 -1.168026034E+02  4.611031710E+02  5.126689394E+02  1.250000000E+02  0.00000E+00  9.000E+00
      25     1     1     2     0     0 -1.638825486E+02  1.124690762E+02  2.122389308E+03  2.135337950E+03  1.250000000E+02  0.00000E+00  9.000E+00
      21     1     1     2   512   501  1.915708781E+01  4.333527143E+00  4.257992315E+01  4.689161254E+01  9.536743164E-07  0.00000E+00  9.000E+00
#rwgt            1           1   4.6249103104172462E-002          26      189144           0
</event>
<event>
      5   9999  3.70600E-02  1.63463E+02 -1.00000E+00  1.14932E-01
      21    -1     0     0   502   501  0.000000000E+00  0.000000000E+00  1.916392746E+02  1.916392746E+02  0.000000000E+00  0.00000E+00  9.000E+00
       3    -1     0     0   501     0  0.000000000E+00  0.000000000E+00 -5.081866762E+02  5.081866762E+02  0.000000000E+00  0.00000E+00  9.000E+00
      25     1     1     2     0     0 -2.689980166E+01  1.925981688E+02 -2.046011633E+01  2.320803100E+02  1.250000000E+02  0.00000E+00  9.000E+00
      25     1     1     2     0     0 -7.581395040E+01 -6.543704594E+01 -2.517378774E+02  2.983734589E+02  1.250000000E+02  0.00000E+00  9.000E+00
       3     1     1     2   502     0  1.027137521E+02 -1.271611228E+02 -4.434940780E+01  1.693721819E+02  2.523185073E-06  0.00000E+00  9.000E+00
#rwgt            2          14   5.5292484694269621E-006          26      189491           0
</event>
<event>
      5   9999  3.70600E-02  1.15562E+02 -1.00000E+00  1.21065E-01
      21    -1     0     0   511   501  0.000000000E+00  0.000000000E+00  3.918374659E+01  3.918374659E+01  0.000000000E+00  0.00000E+00  9.000E+00
      21    -1     0     0   501   502  0.000000000E+00  0.000000000E+00 -1.725298515E+03  1.725298515E+03  0.000000000E+00  0.00000E+00  9.000E+00
      25     1     1     2     0     0  5.732687664E+01  1.688529755E+02 -5.092654698E+02  5.538718416E+02  1.250000000E+02  0.00000E+00  9.000E+00
      25     1     1     2     0     0 -2.517716908E+00 -6.711596328E+01 -8.919329302E+02  9.031501776E+02  1.250000000E+02  0.00000E+00  9.000E+00
      21     1     1     2   511   502 -5.480915973E+01 -1.017370122E+02 -2.849163681E+02  3.074602421E+02  3.814697266E-06  0.00000E+00  9.000E+00
#rwgt            1           1   5.2024568447675737E-002          26      189525           0
</event>
<event>
      5   9999  3.70600E-02  9.20239E+01 -1.00000E+00  1.25472E-01
      21    -1     0     0   502   501  0.000000000E+00  0.000000000E+00  7.829467359E+02  7.829467359E+02  0.000000000E+00  0.00000E+00  9.000E+00
      21    -1     0     0   512   502  0.000000000E+00  0.000000000E+00 -1.630730718E+02  1.630730718E+02  0.000000000E+00  0.00000E+00  9.000E+00
      25     1     1     2     0     0  2.668530964E+02  1.519138358E+02  2.115320893E+02  3.932673561E+02  1.250000000E+02  0.00000E+00  9.000E+00
      25     1     1     2     0     0 -1.774560734E+02 -1.737442009E+02  3.330750889E+02  4.338683213E+02  1.250000000E+02  0.00000E+00  9.000E+00
      21     1     1     2   512   501 -8.939702298E+01  2.183036508E+01  7.526648588E+01  1.188841304E+02  9.536743164E-07  0.00000E+00  9.000E+00
#rwgt            1           1   3.7613654881296837E-002          26      189617           0
</event>
<event>
      5   9999  3.70600E-02  3.76892E+01 -1.00000E+00  1.46459E-01
      21    -1     0     0   502   501  0.000000000E+00  0.000000000E+00  4.310837954E+02  4.310837954E+02  0.000000000E+00  0.00000E+00  9.000E+00
      21    -1     0     0   511   502  0.000000000E+00  0.000000000E+00 -9.986834075E+01  9.986834075E+01  0.000000000E+00  0.00000E+00  9.000E+00
      25     1     1     2     0     0  6.947937356E+00 -4.620219718E+01  3.397235304E+02  3.649931424E+02  1.250000000E+02  0.00000E+00  9.000E+00
      25     1     1     2     0     0  1.493190472E+00  9.470458448E+00 -1.909051555E+01  1.268123298E+02  1.250000000E+02  0.00000E+00  9.000E+00
      21     1     1     2   511   501 -8.441127828E+00  3.673173874E+01  1.058243978E+01  3.914666399E+01  1.118282261E-06  0.00000E+00  9.000E+00
#rwgt            1           1   3.3534428195250598E-002          26      190015           0
</event>
<event>
      5   9999  3.70600E-02  1.28029E+01 -1.00000E+00  1.84115E-01
      21    -1     0     0   512   501  0.000000000E+00  0.000000000E+00  4.873434081E+02  4.873434081E+02  0.000000000E+00  0.00000E+00  9.000E+00
      21    -1     0     0   501   502  0.000000000E+00  0.000000000E+00 -1.780678052E+02  1.780678052E+02  0.000000000E+00  0.00000E+00  9.000E+00
      25     1     1     2     0     0  9.616563598E+01 -6.380924219E+01 -9.574101724E+01  1.952198538E+02  1.250000000E+02  0.00000E+00  9.000E+00
      25     1     1     2     0     0 -9.417392701E+01  7.645628694E+01  2.018154664E+02  2.665872743E+02  1.250000000E+02  0.00000E+00  9.000E+00
      21     1     1     2   512   502 -1.991708978E+00 -1.264704475E+01  2.032011538E+02  2.036040853E+02  2.697398305E-06  0.00000E+00  9.000E+00
#rwgt            1           1   4.9229545659188793E-002          26      190194           0
</event>
<event>
      5   9999  3.70600E-02  3.87344E+01 -1.00000E+00  1.45709E-01
       2    -1     0     0   502     0  0.000000000E+00  0.000000000E+00  2.294119835E+02  2.294119835E+02  0.000000000E+00  0.00000E+00  9.000E+00
      21    -1     0     0   501   502  0.000000000E+00  0.000000000E+00 -1.930062498E+02  1.930062498E+02  0.000000000E+00  0.00000E+00  9.000E+00
      25     1     1     2     0     0  4.801621234E+01 -1.053401924E+02 -2.860105440E+00  1.703974559E+02  1.250000000E+02  0.00000E+00  9.000E+00
      25     1     1     2     0     0 -3.717179389E+01  1.425255420E+02 -4.937440696E+00  1.932476408E+02  1.250000000E+02  0.00000E+00  9.000E+00
       2     1     1     2   501     0 -1.084441844E+01 -3.718534959E+01  4.420327983E+01  5.877313658E+01  6.743495762E-07  0.00000E+00  9.000E+00
#rwgt            1           1   3.2409302006262325E-002          26      191076           0
</event>
<event>
      5   9999  3.70600E-02  1.69954E+01 -1.00000E+00  1.72418E-01
      21    -1     0     0   511   501  0.000000000E+00  0.000000000E+00  4.237134976E+02  4.237134976E+02  0.000000000E+00  0.00000E+00  9.000E+00
      21    -1     0     0   501   502  0.000000000E+00  0.000000000E+00 -5.304123847E+01  5.304123847E+01  0.000000000E+00  0.00000E+00  9.000E+00
      25     1     1     2     0     0  3.537845204E+01  3.289637396E+01  1.902427454E+02  2.327039073E+02  1.250000000E+02  0.00000E+00  9.000E+00
      25     1     1     2     0     0 -4.866221739E+01 -4.349757899E+01  1.336783769E+02  1.943063540E+02  1.250000000E+02  0.00000E+00  9.000E+00
      21     1     1     2   511   502  1.328376536E+01  1.060120503E+01  4.675113679E+01  4.974447468E+01  0.000000000E+00  0.00000E+00  9.000E+00
#rwgt            1           1   4.0868309465286932E-002          26      191606           0
</event>
<event>
      5   9999  3.70600E-02  2.31125E+01 -1.00000E+00  1.61345E-01
      21    -1     0     0   502   512  0.000000000E+00  0.000000000E+00  1.172308850E+03  1.172308850E+03  0.000000000E+00  0.00000E+00  9.000E+00
      21    -1     0     0   501   502  0.000000000E+00  0.000000000E+00 -1.009492757E+03  1.009492757E+03  0.000000000E+00  0.00000E+00  9.000E+00
      25     1     1     2     0     0 -9.918112411E+01 -2.902398623E+02 -3.770809447E+02  5.018875490E+02  1.250000000E+02  0.00000E+00  9.000E+00
      25     1     1     2     0     0  1.220808929E+02  2.933686406E+02 -5.187341429E+02  6.210306069E+02  1.250000000E+02  0.00000E+00  9.000E+00
      21     1     1     2   501   512 -2.289976876E+01 -3.128778340E+00  1.058631181E+03  1.058883452E+03  0.000000000E+00  0.00000E+00  9.000E+00
#rwgt            1           1   3.5176211714910970E-002          26      192256           0
</event>
<event>
      5   9999  3.70600E-02  6.99340E+01 -1.00000E+00  1.31239E-01
      21    -1     0     0   502   501  0.000000000E+00  0.000000000E+00  2.541939936E+01  2.541939936E+01  0.000000000E+00  0.00000E+00  9.000E+00
      21    -1     0     0   511   502  0.000000000E+00  0.000000000E+00 -2.006819957E+03  2.006819957E+03  0.000000000E+00  0.00000E+00  9.000E+00
      25     1     1     2     0     0 -8.009365979E+01 -5.308232134E+01 -1.250285094E+03  1.260186710E+03  1.250000000E+02  0.00000E+00  9.000E+00
      25     1     1     2     0     0  1.023226161E+01  5.626896582E+01 -2.449672645E+02  2.809000826E+02  1.250000000E+02  0.00000E+00  9.000E+00
      21     1     1     2   511   501  6.986139818E+01 -3.186644476E+00 -4.861481983E+02  4.911525632E+02  9.344061824E-06  0.00000E+00  9.000E+00
#rwgt            1           1   4.1473567441739335E-002          26      192656           0
</event>
<event>
      5   9999  3.70600E-02  9.62235E+01 -1.00000E+00  1.24583E-01
      -1    -1     0     0     0   501  0.000000000E+00  0.000000000E+00  2.141762467E+02  2.141762467E+02  0.000000000E+00  0.00000E+00  9.000E+00
      21    -1     0     0   501   502  0.000000000E+00  0.000000000E+00 -2.178346216E+03  2.178346216E+03  0.000000000E+00  0.00000E+00  9.000E+00
      25     1     1     2     0     0 -1.468297275E+02  3.869412255E+02 -4.589925363E+02  6.305407436E+02  1.250000000E+02  0.00000E+00  9.000E+00
      25     1     1     2     0     0  2.345346195E+02 -3.473581066E+02 -1.580426626E+03  1.639828485E+03  1.250000000E+02  0.00000E+00  9.000E+00
      -1     1     1     2     0   502 -8.770489197E+01 -3.958311889E+01  7.524919320E+01  1.221532335E+02  3.438521648E-06  0.00000E+00  9.000E+00
#rwgt            1           1   9.3578879667878395E-002          26      192899           0
</event>
<event>
      5   9999  3.70600E-02  6.16264E+01 -1.00000E+00  1.34084E-01
      21    -1     0     0   511   501  0.000000000E+00  0.000000000E+00  9.183893443E+02  9.183893443E+02  0.000000000E+00  0.00000E+00  9.000E+00
      21    -1     0     0   501   502  0.000000000E+00  0.000000000E+00 -1.026866183E+02  1.026866183E+02  0.000000000E+00  0.00000E+00  9.000E+00
      25     1     1     2     0     0  5.414354789E+01  1.252431130E+02  8.413979695E+00  1.852381067E+02  1.250000000E+02  0.00000E+00  9.000E+00
      25     1     1     2     0     0 -7.393211258E+00 -8.509069727E+01  4.994486434E+02  5.218898674E+02  1.250000000E+02  0.00000E+00  9.000E+00
      21     1     1     2   511   502 -4.675033664E+01 -4.015241568E+01  3.078401030E+02  3.139479885E+02  5.394796609E-06  0.00000E+00  9.000E+00
#rwgt            1           1   4.4368106204953905E-002          26      193788           0
</event>
<event>
      5   9999  3.70600E-02  2.25632E+01 -1.00000E+00  1.62158E-01
      21    -1     0     0   502   501  0.000000000E+00  0.000000000E+00  3.344045138E+02  3.344045138E+02  0.000000000E+00  0.00000E+00  9.000E+00
       2    -1     0     0   501     0  0.000000000E+00  0.000000000E+00 -6.382412525E+02  6.382412525E+02  0.000000000E+00  0.00000E+00  9.000E+00
      25     1     1     2     0     0  1.240434923E+01 -7.227425008E+01  2.110021751E+02  2.559772510E+02  1.250000000E+02  0.00000E+00  9.000E+00
      25     1     1     2     0     0  3.485675825E+00  8.829314680E+01  4.250390450E+01  1.588691651E+02  1.250000000E+02  0.00000E+00  9.000E+00
       2     1     1     2   502     0 -1.589002505E+01 -1.601889672E+01 -5.573428184E+02  5.577993503E+02  1.078959322E-05  0.00000E+00  9.000E+00
#rwgt            1           1   3.5232040194600904E-002          26      193876           0
</event>
<event>
      5   9999  3.70600E-02  1.10886E+02 -1.00000E+00  1.21841E-01
      21    -1     0     0   511   501  0.000000000E+00  0.000000000E+00  7.939651734E+02  7.939651734E+02  0.000000000E+00  0.00000E+00  9.000E+00
      21    -1     0     0   501   502  0.000000000E+00  0.000000000E+00 -9.692176496E+01  9.692176496E+01  0.000000000E+00  0.00000E+00  9.000E+00
      25     1     1     2     0     0  1.037447055E+02  1.339100893E+02  8.565714012E+01  2.272818110E+02  1.250000000E+02  0.00000E+00  9.000E+00
      25     1     1     2     0     0 -7.135037622E+01 -2.786144535E+01  3.266635575E+02  3.580519741E+02  1.250000000E+02  0.00000E+00  9.000E+00
      21     1     1     2   511   502 -3.239432933E+01 -1.060486439E+02  2.847227108E+02  3.055531533E+02  5.394796609E-06  0.00000E+00  9.000E+00
#rwgt            1           1   4.8016825382473260E-002          26      194062           0
</event>
<event>
      5   9999  3.70600E-02  1.21660E+02 -1.00000E+00  1.20114E-01
      21    -1     0     0   512   501  0.000000000E+00  0.000000000E+00  9.303145120E+02  9.303145120E+02  0.000000000E+00  0.00000E+00  9.000E+00
      21    -1     0     0   501   502  0.000000000E+00  0.000000000E+00 -9.887548434E+01  9.887548434E+01  0.000000000E+00  0.00000E+00  9.000E+00
      25     1     1     2     0     0 -1.295584869E+02 -1.032313173E+02  1.533199731E+02  2.580196127E+02  1.250000000E+02  0.00000E+00  9.000E+00
      25     1     1     2     0     0  5.834572609E+01  2.018713389E+02  4.798501951E+02  5.385512705E+02  1.250000000E+02  0.00000E+00  9.000E+00
      21     1     1     2   512   502  7.121276079E+01 -9.864002155E+01  1.982688595E+02  2.326191131E+02  5.394796609E-06  0.00000E+00  9.000E+00
#rwgt            1           1   2.6452455402778487E-002          26      194321           0
</event>
<event>
      5   9999  3.70600E-02  1.27635E+02 -1.00000E+00  1.19240E-01
       1    -1     0     0   502     0  0.000000000E+00  0.000000000E+00  1.883807377E+02  1.883807377E+02  0.000000000E+00  0.00000E+00  9.000E+00
      21    -1     0     0   501   502  0.000000000E+00  0.000000000E+00 -6.660089435E+02  6.660089435E+02  0.000000000E+00  0.00000E+00  9.000E+00
      25     1     1     2     0     0 -1.126904211E+02  2.810643877E+01 -5.513331113E+01  1.793147649E+02  1.250000000E+02  0.00000E+00  9.000E+00
      25     1     1     2     0     0  2.191580061E+02  4.228809576E+01 -4.730504378E+02  5.377919964E+02  1.250000000E+02  0.00000E+00  9.000E+00
       1     1     1     2   501     0 -1.064675850E+02 -7.039453453E+01  5.055554324E+01  1.372829199E+02  1.651812370E-06  0.00000E+00  9.000E+00
#rwgt            1           1   4.8624269539677988E-002          26      194568           0
</event>
<event>
      5   9999  3.70600E-02  6.32739E+01 -1.00000E+00  1.33480E-01
      21    -1     0     0   511   501  0.000000000E+00  0.000000000E+00  2.449437026E+02  2.449437026E+02  0.000000000E+00  0.00000E+00  9.000E+00
      21    -1     0     0   501   502  0.000000000E+00  0.000000000E+00 -4.876335742E+02  4.876335742E+02  0.000000000E+00  0.00000E+00  9.000E+00
      25     1     1     2     0     0 -6.106671696E+01  4.174792500E+01 -2.706935544E+01  1.477490547E+02  1.250000000E+02  0.00000E+00  9.000E+00
      25     1     1     2     0     0  3.140538285E+01 -9.763884079E+01 -3.776895831E+02  4.108455458E+02  1.250000000E+02  0.00000E+00  9.000E+00
      21     1     1     2   511   502  2.966133411E+01  5.589091579E+01  1.620690670E+02  1.739826764E+02  0.000000000E+00  0.00000E+00  9.000E+00
#rwgt            1           1   3.1961279274046968E-002          26      194910           0
</event>
<event>
      5   9999  3.70600E-02  3.53069E+01 -1.00000E+00  1.48281E-01
      21    -1     0     0   502   501  0.000000000E+00  0.000000000E+00  3.271904254E+02  3.271904254E+02  0.000000000E+00  0.00000E+00  9.000E+00
      21    -1     0     0   501   512  0.000000000E+00  0.000000000E+00 -2.503843226E+02  2.503843226E+02  0.000000000E+00  0.00000E+00  9.000E+00
      25     1     1     2     0     0  1.029878565E+02  1.544221599E+02  9.140503811E+01  2.417283249E+02  1.250000000E+02  0.00000E+00  9.000E+00
      25     1     1     2     0     0 -1.279526494E+02 -1.294554672E+02  8.001658601E+01  2.348579411E+02  1.250000000E+02  0.00000E+00  9.000E+00
      21     1     1     2   502   512  2.496479282E+01 -2.496669269E+01 -9.461552133E+01  1.009884820E+02  0.000000000E+00  0.00000E+00  9.000E+00
#rwgt            1           1   3.4048131246721382E-002          26      195344           0
</event>
<event>
      5   9999  3.70600E-02  3.16747E+01 -1.00000E+00  1.51417E-01
      21    -1     0     0   502   501  0.000000000E+00  0.000000000E+00  9.215694202E+01  9.215694202E+01  0.000000000E+00  0.00000E+00  9.000E+00
      21    -1     0     0   501   511  0.000000000E+00  0.000000000E+00 -8.282826582E+02  8.282826582E+02  0.000000000E+00  0.00000E+00  9.000E+00
      25     1     1     2     0     0 -1.667851294E+02  5.315683062E+01 -2.313258949E+02  3.158790871E+02  1.250000000E+02  0.00000E+00  9.000E+00
      25     1     1     2     0     0  1.351694486E+02 -5.508883909E+01 -1.384700428E+02  2.368639120E+02  1.250000000E+02  0.00000E+00  9.000E+00
      21     1     1     2   502   511  3.161568076E+01  1.932008476E+00 -3.663297784E+02  3.676966011E+02  0.000000000E+00  0.00000E+00  9.000E+00
#rwgt            1           1   4.4445258105294844E-002          26      195811           0
</event>
<event>
      5   9999  3.70600E-02  2.29646E+01 -1.00000E+00  1.61561E-01
      21    -1     0     0   502   501  0.000000000E+00  0.000000000E+00  5.428680115E+01  5.428680115E+01  0.000000000E+00  0.00000E+00  9.000E+00
      21    -1     0     0   501   512  0.000000000E+00  0.000000000E+00 -1.038998698E+03  1.038998698E+03  0.000000000E+00  0.00000E+00  9.000E+00
      25     1     1     2     0     0  1.325906728E+02 -7.239907944E+01 -5.600910270E+02  5.934213273E+02  1.250000000E+02  0.00000E+00  9.000E+00
      25     1     1     2     0     0 -1.374119013E+02  9.485192223E+01 -2.584545047E+02  3.321184258E+02  1.250000000E+02  0.00000E+00  9.000E+00
      21     1     1     2   502   512  4.821228519E+00 -2.245284280E+01 -1.661663656E+02  1.677457465E+02  1.907348633E-06  0.00000E+00  9.000E+00
#rwgt            1           1   4.2837926983109703E-002          26      196037           0
</event>
<event>
      5   9999  3.70600E-02  8.93965E+01 -1.00000E+00  1.26056E-01
      21    -1     0     0   502   501  0.000000000E+00  0.000000000E+00  1.994092496E+03  1.994092496E+03  0.000000000E+00  0.00000E+00  9.000E+00
      21    -1     0     0   501   511  0.000000000E+00  0.000000000E+00 -5.743011821E+01  5.743011821E+01  0.000000000E+00  0.00000E+00  9.000E+00
      25     1     1     2     0     0  8.251382459E+01  2.423610756E+02  1.355980801E+03  1.385588811E+03  1.250000000E+02  0.00000E+00  9.000E+00
      25     1     1     2     0     0 -9.952175646E+00 -1.901447166E+02  3.405260228E+02  4.096791809E+02  1.250000000E+02  0.00000E+00  9.000E+00
      21     1     1     2   502   511 -7.256164894E+01 -5.221635895E+01  2.401555544E+02  2.562546221E+02  0.000000000E+00  0.00000E+00  9.000E+00
#rwgt            1           1   4.3335566588191626E-002          26      196275           0
</event>
<event>
      5   9999  3.70600E-02  6.30342E+01 -1.00000E+00  1.33566E-01
       2    -1     0     0   502     0  0.000000000E+00  0.000000000E+00  1.593861263E+03  1.593861263E+03  0.000000000E+00  0.00000E+00  9.000E+00
      21    -1     0     0   501   502  0.000000000E+00  0.000000000E+00 -1.456578320E+02  1.456578320E+02  0.000000000E+00  0.00000E+00  9.000E+00
      25     1     1     2     0     0  1.936796652E+02 -4.155685700E+01  5.216969879E+02  5.718667084E+02  1.250000000E+02  0.00000E+00  9.000E+00
      25     1     1     2     0     0 -1.914449072E+02  1.045514030E+02  1.275955619E+01  2.517338965E+02  1.250000000E+02  0.00000E+00  9.000E+00
       2     1     1     2   501     0 -2.234758025E+00 -6.299454599E+01  9.137468865E+02  9.159184896E+02  0.000000000E+00  0.00000E+00  9.000E+00
#rwgt            1           1   3.3789521946630867E-002          26      196549           0
</event>
<event>
      5   9999  3.70600E-02  3.97997E+01 -1.00000E+00  1.44973E-01
      21    -1     0     0   502   511  0.000000000E+00  0.000000000E+00  9.949651818E+02  9.949651818E+02  0.000000000E+00  0.00000E+00  9.000E+00
      21    -1     0     0   501   502  0.000000000E+00  0.000000000E+00 -6.812984384E+01  6.812984384E+01  0.000000000E+00  0.00000E+00  9.000E+00
      25     1     1     2     0     0 -1.216086267E+01  1.706006211E+02  6.832049016E+02  7.152946219E+02  1.250000000E+02  0.00000E+00  9.000E+00
      25     1     1     2     0     0  3.250884914E+01 -1.363957268E+02  1.328169634E+02  2.300564394E+02  1.250000000E+02  0.00000E+00  9.000E+00
      21     1     1     2   501   511 -2.034798646E+01 -3.420489433E+01  1.108134729E+02  1.177439643E+02  2.336015456E-06  0.00000E+00  9.000E+00
#rwgt            2          11   2.6898524028802508E-003          26      196676           0
</event>
<event>
      5   9999  3.70600E-02  2.09060E+01 -1.00000E+00  1.64794E-01
      21    -1     0     0   502   501  0.000000000E+00  0.000000000E+00  1.914858876E+02  1.914858876E+02  0.000000000E+00  0.00000E+00  9.000E+00
      21    -1     0     0   501   512  0.000000000E+00  0.000000000E+00 -5.782361288E+02  5.782361288E+02  0.000000000E+00  0.00000E+00  9.000E+00
      25     1     1     2     0     0  3.806553186E+01 -2.023081948E+02 -6.828064043E+01  2.503294554E+02  1.250000000E+02  0.00000E+00  9.000E+00
      25     1     1     2     0     0 -4.738234945E+01  1.835929739E+02 -2.874704764E+01  2.289167094E+02  1.250000000E+02  0.00000E+00  9.000E+00
      21     1     1     2   502   512  9.316817589E+00  1.871522086E+01 -2.897225531E+02  2.904758516E+02  5.394796609E-06  0.00000E+00  9.000E+00
#rwgt            1           1   1.7986441775086088E-002          26      196906           0
</event>
<event>
      5   9999  3.70600E-02  8.55579E+01 -1.00000E+00  1.26951E-01
      21    -1     0     0   502   501  0.000000000E+00  0.000000000E+00  2.976649760E+02  2.976649760E+02  0.000000000E+00  0.00000E+00  9.000E+00
      21    -1     0     0   501   511  0.000000000E+00  0.000000000E+00 -3.665036890E+02  3.665036890E+02  0.000000000E+00  0.00000E+00  9.000E+00
      25     1     1     2     0     0  1.019916956E+02 -1.553315720E+02 -1.280197675E+02  2.579617493E+02  1.250000000E+02  0.00000E+00  9.000E+00
      25     1     1     2     0     0 -1.557183412E+02  8.874624291E+01  1.623147119E+02  2.722042673E+02  1.250000000E+02  0.00000E+00  9.000E+00
      21     1     1     2   502   511  5.372664557E+01  6.658532911E+01 -1.031336575E+02  1.340026485E+02  1.907348633E-06  0.00000E+00  9.000E+00
#rwgt            1           1   3.5179224759843385E-002          26      197458           0
</event>
<event>
      5   9999 -3.70600E-02  2.63202E+01 -1.00000E+00  1.57092E-01
      21    -1     0     0   502   501  0.000000000E+00  0.000000000E+00  3.535330968E+02  3.535330968E+02  0.000000000E+00  0.00000E+00  9.000E+00
      21    -1     0     0   512   502  0.000000000E+00  0.000000000E+00 -3.501028487E+02  3.501028487E+02  0.000000000E+00  0.00000E+00  9.000E+00
      25     1     1     2     0     0  2.441777064E+02 -4.820706840E+01  1.567959998E+02  3.196195540E+02  1.250000000E+02  0.00000E+00  9.000E+00
      25     1     1     2     0     0 -2.671825968E+02  6.099492289E+01 -8.839954110E+01  3.139210084E+02  1.250000000E+02  0.00000E+00  9.000E+00
      21     1     1     2   512   501  2.300489046E+01 -1.278785449E+01 -6.496621065E+01  7.009538311E+01  9.536743164E-07  0.00000E+00  9.000E+00
#rwgt            1           1  -2.6703202975429972E-002          26      197730           0
</event>
<event>
      5   9999  3.70600E-02  4.21744E+01 -1.00000E+00  1.43426E-01
      21    -1     0     0   502   501  0.000000000E+00  0.000000000E+00  5.467044338E+02  5.467044338E+02  0.000000000E+00  0.00000E+00  9.000E+00
       2    -1     0     0   501     0  0.000000000E+00  0.000000000E+00 -1.597182019E+03  1.597182019E+03  0.000000000E+00  0.00000E+00  9.000E+00
      25     1     1     2     0     0 -6.819357604E+00  1.378181256E+02  2.026159391E+02  2.751700531E+02  1.250000000E+02  0.00000E+00  9.000E+00
      25     1     1     2     0     0  4.666282047E+01 -1.516447297E+02  2.743530244E+02  3.406877234E+02  1.250000000E+02  0.00000E+00  9.000E+00
       2     1     1     2   502     0 -3.984346287E+01  1.382660418E+01 -1.527446548E+03  1.528028676E+03  3.051757812E-05  0.00000E+00  9.000E+00
#rwgt            1           1   3.4537567855523435E-002          26      198101           0
</event>
<event>
      5   9999  3.70600E-02  8.89654E+00 -1.00000E+00  2.01812E-01
      21    -1     0     0   502   511  0.000000000E+00  0.000000000E+00  1.778246702E+02  1.778246702E+02  0.000000000E+00  0.00000E+00  9.000E+00
      21    -1     0     0   501   502  0.000000000E+00  0.000000000E+00 -2.775192265E+02  2.775192265E+02  0.000000000E+00  0.00000E+00  9.000E+00
      25     1     1     2     0     0  1.574024192E+02 -4.734902126E+01 -8.721273781E+00  2.066845713E+02  1.250000000E+02  0.00000E+00  9.000E+00
      25     1     1     2     0     0 -1.505362266E+02  5.300621970E+01 -1.078180335E+02  2.296095451E+02  1.250000000E+02  0.00000E+00  9.000E+00
      21     1     1     2   501   511 -6.866192633E+00 -5.657198435E+00  1.684475095E+01  1.904978031E+01  2.384185791E-07  0.00000E+00  9.000E+00
#rwgt            1           1   3.4005454483380097E-002          26      198862           0
</event>
<event>
      5   9999  3.70600E-02  2.98610E+01 -1.00000E+00  1.53177E-01
      21    -1     0     0   502   501  0.000000000E+00  0.000000000E+00  5.152526522E+02  5.152526522E+02  0.000000000E+00  0.00000E+00  9.000E+00
      21    -1     0     0   512   502  0.000000000E+00  0.000000000E+00 -1.677688672E+02  1.677688672E+02  0.000000000E+00  0.00000E+00  9.000E+00
      25     1     1     2     0     0  6.530935470E+01 -7.751574096E+01  4.225297166E+02  4.521397608E+02  1.250000000E+02  0.00000E+00  9.000E+00
      25     1     1     2     0     0 -3.668884485E+01  6.899853037E+01  2.864216487E+00  1.474451500E+02  1.250000000E+02  0.00000E+00  9.000E+00
      21     1     1     2   512   501 -2.862050985E+01  8.517210590E+00 -7.791014812E+01  8.343660852E+01  1.651812370E-06  0.00000E+00  9.000E+00
#rwgt            1           1   4.7998772818328643E-002          26      199445           0
</event>
<event>
      5   9999  3.70600E-02  2.55485E+01 -1.00000E+00  1.58045E-01
      21    -1     0     0   502   501  0.000000000E+00  0.000000000E+00  4.110521108E+02  4.110521108E+02  0.000000000E+00  0.00000E+00  9.000E+00
      21    -1     0     0   511   502  0.000000000E+00  0.000000000E+00 -1.311752539E+02  1.311752539E+02  0.000000000E+00  0.00000E+00  9.000E+00
      25     1     1     2     0     0 -4.453061588E+01 -3.519716860E+01  3.354960463E+02  3.624974669E+02  1.250000000E+02  0.00000E+00  9.000E+00
      25     1     1     2     0     0  1.989855533E+01  4.197847089E+01 -6.979294886E+01  1.505131231E+02  1.250000000E+02  0.00000E+00  9.000E+00
      21     1     1     2   511   501  2.463206055E+01 -6.781302298E+00  1.417375938E+01  2.921677468E+01  1.685873940E-07  0.00000E+00  9.000E+00
#rwgt            1           1   4.6489807966352048E-002          26      199669           0
</event>
<event>
      5   9999  3.70600E-02  8.52000E+00 -1.00000E+00  2.04153E-01
      21    -1     0     0   502   501  0.000000000E+00  0.000000000E+00  2.833211450E+02  2.833211450E+02  0.000000000E+00  0.00000E+00  9.000E+00
      21    -1     0     0   512   502  0.000000000E+00  0.000000000E+00 -8.828327482E+01  8.828327482E+01  0.000000000E+00  0.00000E+00  9.000E+00
      25     1     1     2     0     0  3.299124480E+01 -5.140394942E+01  2.431769156E+01  1.412343385E+02  1.250000000E+02  0.00000E+00  9.000E+00
      25     1     1     2     0     0 -4.099355368E+01  5.432858145E+01  1.701529408E+02  2.218312185E+02  1.250000000E+02  0.00000E+00  9.000E+00
      21     1     1     2   512   501  8.002308878E+00 -2.924632029E+00  5.672377526E-01  8.538862837E+00  2.152947080E-07  0.00000E+00  9.000E+00
#rwgt            1           1   2.6704540305023526E-002          26      200450           0
</event>
<event>
      5   9999  3.70600E-02  7.84770E+00 -1.00000E+00  2.08763E-01
      21    -1     0     0   502   511  0.000000000E+00  0.000000000E+00  5.162562180E+02  5.162562180E+02  0.000000000E+00  0.00000E+00  9.000E+00
      21    -1     0     0   501   502  0.000000000E+00  0.000000000E+00 -1.125127136E+02  1.125127136E+02  0.000000000E+00  0.00000E+00  9.000E+00
      25     1     1     2     0     0 -3.835861996E+01 -5.809147983E+01  2.333263525E+02  2.737009144E+02  1.250000000E+02  0.00000E+00  9.000E+00
      25     1     1     2     0     0  3.623183497E+01  6.564550047E+01 -3.467047208E+01  1.498303014E+02  1.250000000E+02  0.00000E+00  9.000E+00
      21     1     1     2   501   511  2.126784990E+00 -7.554020642E+00  2.050876240E+02  2.052377158E+02  4.672030912E-06  0.00000E+00  9.000E+00
#rwgt            1           1   3.6342747525911115E-002          26      201326           0
</event>
<event>
      5   9999  3.70600E-02  2.07597E+01 -1.00000E+00  1.65041E-01
      21    -1     0     0   502   501  0.000000000E+00  0.000000000E+00  8.405286148E+02  8.405286148E+02  0.000000000E+00  0.00000E+00  9.000E+00
      21    -1     0     0   501   512  0.000000000E+00  0.000000000E+00 -8.070373452E+01  8.070373452E+01  0.000000000E+00  0.00000E+00  9.000E+00
      25     1     1     2     0     0 -1.018375726E+02  1.075945091E+02  6.128658875E+02  6.427885078E+02  1.250000000E+02  0.00000E+00  9.000E+00
      25     1     1     2     0     0  1.076165393E+02 -8.765535677E+01  1.662849048E+02  2.500808882E+02  1.250000000E+02  0.00000E+00  9.000E+00
      21     1     1     2   502   512 -5.778966682E+00 -1.993915230E+01 -1.932591199E+01  2.836295339E+01  5.331201500E-07  0.00000E+00  9.000E+00
#rwgt            1           1   3.3770006387800471E-002          26      201790           0
</event>
<event>
      5   9999  3.70600E-02  7.65407E+00 -1.00000E+00  2.10207E-01
      21    -1     0     0   502   501  0.000000000E+00  0.000000000E+00  3.801579206E+02  3.801579206E+02  0.000000000E+00  0.00000E+00  9.000E+00
      21    -1     0     0   511   502  0.000000000E+00  0.000000000E+00 -9.658166543E+01  9.658166543E+01  0.000000000E+00  0.00000E+00  9.000E+00
      25     1     1     2     0     0 -9.421561257E+01  2.383524053E+00  4.879864197E+01  1.639773469E+02  1.250000000E+02  0.00000E+00  9.000E+00
      25     1     1     2     0     0  9.978902129E+01 -7.629652903E+00  2.493288880E+02  2.963206958E+02  1.250000000E+02  0.00000E+00  9.000E+00
      21     1     1     2   511   501 -5.573408718E+00  5.246128850E+00 -1.455127473E+01  1.644154338E+01  1.685873940E-07  0.00000E+00  9.000E+00
#rwgt            1           1   3.6105285544190645E-002          26      202181           0
</event>
<event>
      5   9999  3.70600E-02  4.30956E+01 -1.00000E+00  1.42858E-01
      21    -1     0     0   502   501  0.000000000E+00  0.000000000E+00  5.362637952E+02  5.362637952E+02  0.000000000E+00  0.00000E+00  9.000E+00
      21    -1     0     0   512   502  0.000000000E+00  0.000000000E+00 -3.021962493E+02  3.021962493E+02  0.000000000E+00  0.00000E+00  9.000E+00
      25     1     1     2     0     0  2.254092549E+02  6.913771080E+01  1.986593482E+02  3.326858757E+02  1.250000000E+02  0.00000E+00  9.000E+00
      25     1     1     2     0     0 -2.172264716E+02 -2.682606770E+01  2.086760870E+02  3.272272714E+02  1.250000000E+02  0.00000E+00  9.000E+00
      21     1     1     2   512   501 -8.182783326E+00 -4.231164310E+01 -1.732678894E+02  1.785468974E+02  2.697398305E-06  0.00000E+00  9.000E+00
#rwgt            1           1   3.4332347565219738E-002          26      202776           0
</event>
<event>
      5   9999  3.70600E-02  4.30722E+01 -1.00000E+00  1.42873E-01
      21    -1     0     0   502   501  0.000000000E+00  0.000000000E+00  1.289657364E+02  1.289657364E+02  0.000000000E+00  0.00000E+00  9.000E+00
      21    -1     0     0   501   511  0.000000000E+00  0.000000000E+00 -4.135796698E+02  4.135796698E+02  0.000000000E+00  0.00000E+00  9.000E+00
      25     1     1     2     0     0 -9.242358043E+01  3.911639198E+01 -8.806882027E+01  1.829025080E+02  1.250000000E+02  0.00000E+00  9.000E+00
      25     1     1     2     0     0  1.352802743E+02 -4.341964490E+01 -3.499129743E+01  1.924458601E+02  1.250000000E+02  0.00000E+00  9.000E+00
      21     1     1     2   502   511 -4.285669387E+01  4.303252921E+00 -1.615538157E+02  1.671970381E+02  3.303624740E-06  0.00000E+00  9.000E+00
#rwgt            1           1   3.7640924659485327E-002          26      203027           0
</event>
<event>
      5   9999  3.70600E-02  3.96372E+01 -1.00000E+00  1.45084E-01
      21    -1     0     0   512   501  0.000000000E+00  0.000000000E+00  9.749001309E+02  9.749001309E+02  0.000000000E+00  0.00000E+00  9.000E+00
      21    -1     0     0   501   502  0.000000000E+00  0.000000000E+00 -1.506812620E+02  1.506812620E+02  0.000000000E+00  0.00000E+00  9.000E+00
      25     1     1     2     0     0 -2.943934647E+02  1.470774055E+02  4.048470636E+02  5.364936348E+02  1.250000000E+02  0.00000E+00  9.000E+00
      25     1     1     2     0     0  2.868201282E+02 -1.859843371E+02  3.299373262E+02  4.912632684E+02  1.250000000E+02  0.00000E+00  9.000E+00
      21     1     1     2   512   502  7.573336485E+00  3.890693165E+01  8.943447903E+01  9.782448975E+01  9.536743164E-07  0.00000E+00  9.000E+00
#rwgt            1           1   2.9673228553748571E-002          26      203283           0
</event>
<event>
      5   9999  3.70600E-02  5.87392E+01 -1.00000E+00  1.35196E-01
      21    -1     0     0   502   501  0.000000000E+00  0.000000000E+00  1.732384634E+02  1.732384634E+02  0.000000000E+00  0.00000E+00  9.000E+00
      21    -1     0     0   511   502  0.000000000E+00  0.000000000E+00 -4.423417965E+02  4.423417965E+02  0.000000000E+00  0.00000E+00  9.000E+00
      25     1     1     2     0     0  1.768627057E+02  1.369352250E+01  2.199876091E+01  2.181212386E+02  1.250000000E+02  0.00000E+00  9.000E+00
      25     1     1     2     0     0 -1.550910057E+02 -6.824890400E+01 -2.430140098E+02  3.215461738E+02  1.250000000E+02  0.00000E+00  9.000E+00
      21     1     1     2   511   501 -2.177170004E+01  5.455538150E+01 -4.808808417E+01  7.591284748E+01  0.000000000E+00  0.00000E+00  9.000E+00
#rwgt            1           1   3.8453671792744289E-002          26      203656           0
</event>
<event>
      5   9999  3.70600E-02  8.14377E+01 -1.00000E+00  1.27974E-01
      21    -1     0     0   502   501  0.000000000E+00  0.000000000E+00  1.779225674E+02  1.779225674E+02  0.000000000E+00  0.00000E+00  9.000E+00
      21    -1     0     0   501   512  0.000000000E+00  0.000000000E+00 -6.255646832E+02  6.255646832E+02  0.000000000E+00  0.00000E+00  9.000E+00
      25     1     1     2     0     0  1.142140839E+01 -9.544343131E+01  8.456581356E+01  1.789309196E+02  1.250000000E+02  0.00000E+00  9.000E+00
      25     1     1     2     0     0  6.789059074E+01  7.695793296E+01 -1.124741250E+02  1.969951384E+02  1.250000000E+02  0.00000E+00  9.000E+00
      21     1     1     2   502   512 -7.931199913E+01  1.848549835E+01 -4.197338044E+02  4.275611926E+02  0.000000000E+00  0.00000E+00  9.000E+00
#rwgt            1           1   4.5625380134962305E-002          26      204028           0
</event>
<event>
      5   9999  3.70600E-02  9.45168E+01 -1.00000E+00  1.24938E-01
      21    -1     0     0   511   501  0.000000000E+00  0.000000000E+00  3.165198346E+02  3.165198346E+02  0.000000000E+00  0.00000E+00  9.000E+00
      21    -1     0     0   501   502  0.000000000E+00  0.000000000E+00 -3.383952276E+02  3.383952276E+02  0.000000000E+00  0.00000E+00  9.000E+00
      25     1     1     2     0     0 -1.204947050E+02 -2.842516293E+01 -2.165646884E+02  2.790201213E+02  1.250000000E+02  0.00000E+00  9.000E+00
      25     1     1     2     0     0  1.843708982E+02 -4.124014302E+01  1.277391361E+02  2.600685763E+02  1.250000000E+02  0.00000E+00  9.000E+00
      21     1     1     2   511   502 -6.387619320E+01  6.966530595E+01  6.695015931E+01  1.158263646E+02  9.536743164E-07  0.00000E+00  9.000E+00
#rwgt            1           1   3.0806517649443463E-002          26      204916           0
</event>
<event>
      5   9999  3.70600E-02  2.32479E+01 -1.00000E+00  1.61148E-01
      21    -1     0     0   502   501  0.000000000E+00  0.000000000E+00  1.242226528E+03  1.242226528E+03  0.000000000E+00  0.00000E+00  9.000E+00
      21    -1     0     0   512   502  0.000000000E+00  0.000000000E+00 -1.265290061E+02  1.265290061E+02  0.000000000E+00  0.00000E+00  9.000E+00
      25     1     1     2     0     0  1.586295033E+01  6.606035924E+01  6.606911147E+01  1.568621425E+02  1.250000000E+02  0.00000E+00  9.000E+00
      25     1     1     2     0     0 -2.892346875E+01 -8.529279808E+01  1.123723996E+03  1.134236328E+03  1.250000000E+02  0.00000E+00  9.000E+00
      21     1     1     2   512   501  1.306051841E+01  1.923243884E+01 -7.409558518E+01  7.765706400E+01  2.132480600E-06  0.00000E+00  9.000E+00
#rwgt            1           1   2.8736879159870540E-002          26      205135           0
</event>
<event>
      5   9999  3.70600E-02  4.11725E+01 -1.00000E+00  1.44064E-01
      21    -1     0     0   511   501  0.000000000E+00  0.000000000E+00  2.453881511E+02  2.453881511E+02  0.000000000E+00  0.00000E+00  9.000E+00
      21    -1     0     0   501   502  0.000000000E+00  0.000000000E+00 -7.128518797E+02  7.128518797E+02  0.000000000E+00  0.00000E+00  9.000E+00
      25     1     1     2     0     0  1.106845029E+02 -1.316668547E+02 -2.693055424E+02  3.431292686E+02  1.250000000E+02  0.00000E+00  9.000E+00
      25     1     1     2     0     0 -8.206674662E+01  1.612674861E+02 -3.743503179E+02  4.341719861E+02  1.250000000E+02  0.00000E+00  9.000E+00
      21     1     1     2   511   502 -2.861775625E+01 -2.960063140E+01  1.761921318E+02  1.809387760E+02  3.814697266E-06  0.00000E+00  9.000E+00
#rwgt            1           1   3.5133340765220476E-002          26      205571           0
</event>
<event>
      5   9999  3.70600E-02  8.69116E+01 -1.00000E+00  1.26630E-01
      21    -1     0     0   512   501  0.000000000E+00  0.000000000E+00  3.692592489E+02  3.692592489E+02  0.000000000E+00  0.00000E+00  9.000E+00
      21    -1     0     0   501   502  0.000000000E+00  0.000000000E+00 -3.827379584E+02  3.827379584E+02  0.000000000E+00  0.00000E+00  9.000E+00
      25     1     1     2     0     0 -1.168037282E+02  9.276259677E+01  3.517890325E+01  1.977639136E+02  1.250000000E+02  0.00000E+00  9.000E+00
      25     1     1     2     0     0  1.499206732E+02 -1.240783438E+01 -2.602111916E+02  3.255226979E+02  1.250000000E+02  0.00000E+00  9.000E+00
      21     1     1     2   512   502 -3.311694499E+01 -8.035476239E+01  2.115535789E+02  2.287105958E+02  0.000000000E+00  0.00000E+00  9.000E+00
#rwgt            1           1   3.8603183011703388E-002          26      206127           0
</event>
<event>
      5   9999  3.70600E-02  2.18857E+01 -1.00000E+00  1.63201E-01
      21    -1     0     0   502   511  0.000000000E+00  0.000000000E+00  8.357041297E+02  8.357041297E+02  0.000000000E+00  0.00000E+00  9.000E+00
      21    -1     0     0   501   502  0.000000000E+00  0.000000000E+00 -5.342698996E+01  5.342698996E+01  0.000000000E+00  0.00000E+00  9.000E+00
      25     1     1     2     0     0  7.820206577E+01 -9.408212416E+01  3.505919035E+02  3.917993007E+02  1.250000000E+02  0.00000E+00  9.000E+00
      25     1     1     2     0     0 -7.572221676E+01  7.233740766E+01  1.730673178E+02  2.377895102E+02  1.250000000E+02  0.00000E+00  9.000E+00
      21     1     1     2   501   511 -2.479849008E+00  2.174471650E+01  2.586179184E+02  2.595423088E+02  6.607249480E-06  0.00000E+00  9.000E+00
#rwgt            1           1   2.4519650679947137E-002          26      206477           0
</event>
<event>
      5   9999  3.70600E-02  1.18019E+01 -1.00000E+00  1.87787E-01
      21    -1     0     0   502   501  0.000000000E+00  0.000000000E+00  8.330815292E+01  8.330815292E+01  0.000000000E+00  0.00000E+00  9.000E+00
      21    -1     0     0   512   502  0.000000000E+00  0.000000000E+00 -1.338949181E+03  1.338949181E+03  0.000000000E+00  0.00000E+00  9.000E+00
      25     1     1     2     0     0  1.195598530E+02  2.547067736E+02 -6.177585028E+02  6.902323281E+02  1.250000000E+02  0.00000E+00  9.000E+00
      25     1     1     2     0     0 -1.135940800E+02 -2.648898747E+02 -4.797898619E+02  5.734924344E+02  1.250000000E+02  0.00000E+00  9.000E+00
      21     1     1     2   512   501 -5.965772939E+00  1.018310109E+01 -1.580926630E+02  1.585325710E+02  1.907348633E-06  0.00000E+00  9.000E+00
#rwgt            1           1   3.6847661854627699E-002          26      206945           0
</event>
<event>
      5   9999  3.70600E-02  2.07019E+01 -1.00000E+00  1.65139E-01
      21    -1     0     0   502   501  0.000000000E+00  0.000000000E+00  1.675598714E+02  1.675598714E+02  0.000000000E+00  0.00000E+00  9.000E+00
      21    -1     0     0   511   502  0.000000000E+00  0.000000000E+00 -2.752448436E+02  2.752448436E+02  0.000000000E+00  0.00000E+00  9.000E+00
      25     1     1     2     0     0 -8.217687797E+01  8.107453689E+01 -2.581922275E+01  1.720980885E+02  1.250000000E+02  0.00000E+00  9.000E+00
      25     1     1     2     0     0  8.661729573E+01 -1.012946340E+02  3.609705151E+00  1.827599211E+02  1.250000000E+02  0.00000E+00  9.000E+00
      21     1     1     2   511   501 -4.440417758E+00  2.022009714E+01 -8.547545460E+01  8.794670532E+01  9.536743164E-07  0.00000E+00  9.000E+00
#rwgt            1           1   2.6667044823328052E-002          26      207412           0
</event>
<event>
      5   9999  3.70600E-02  2.98969E+01 -1.00000E+00  1.53141E-01
      21    -1     0     0   502   501  0.000000000E+00  0.000000000E+00  1.483110789E+02  1.483110789E+02  0.000000000E+00  0.00000E+00  9.000E+00
      21    -1     0     0   512   502  0.000000000E+00  0.000000000E+00 -2.389798345E+03  2.389798345E+03  0.000000000E+00  0.00000E+00  9.000E+00
      25     1     1     2     0     0 -2.819198863E+02 -1.232489119E+01 -9.696373598E+02  1.017571784E+03  1.250000000E+02  0.00000E+00  9.000E+00
      25     1     1     2     0     0  2.761646654E+02  4.166262858E+01 -6.436519522E+01  3.126828671E+02  1.250000000E+02  0.00000E+00  9.000E+00
      21     1     1     2   512   501  5.755220892E+00 -2.933773740E+01 -1.207484711E+03  1.207854773E+03  3.051757812E-05  0.00000E+00  9.000E+00
#rwgt            1           1   2.1514802985286754E-002          26      208003           0
</event>
<event>
      5   9999  3.70600E-02  5.38286E+01 -1.00000E+00  1.37269E-01
      21    -1     0     0   502   501  0.000000000E+00  0.000000000E+00  3.009840388E+02  3.009840388E+02  0.000000000E+00  0.00000E+00  9.000E+00
      21    -1     0     0   511   502  0.000000000E+00  0.000000000E+00 -5.884825248E+02  5.884825248E+02  0.000000000E+00  0.00000E+00  9.000E+00
      25     1     1     2     0     0  4.176844575E+01 -6.648534784E+01 -5.040797458E+02  5.252487932E+02  1.250000000E+02  0.00000E+00  9.000E+00
      25     1     1     2     0     0 -9.554840645E+01  6.877250644E+01  2.481870913E+02  3.017962689E+02  1.250000000E+02  0.00000E+00  9.000E+00
      21     1     1     2   511   501  5.377996071E+01 -2.287158601E+00 -3.160583144E+01  6.242150150E+01  1.011524364E-06  0.00000E+00  9.000E+00
#rwgt            1           1   2.1387681174499695E-002          26      208684           0
</event>
<event>
      5   9999  3.70600E-02  2.03538E+01 -1.00000E+00  1.65740E-01
      21    -1     0     0   502   501  0.000000000E+00  0.000000000E+00  2.733903590E+02  2.733903590E+02  0.000000000E+00  0.00000E+00  9.000E+00
      21    -1     0     0   501   512  0.000000000E+00  0.000000000E+00 -2.841746875E+02  2.841746875E+02  0.000000000E+00  0.00000E+00  9.000E+00
      25     1     1     2     0     0 -1.398254193E+02 -5.003987322E+01  7.782660843E+01  2.091342099E+02  1.250000000E+02  0.00000E+00  9.000E+00
      25     1     1     2     0     0  1.407601032E+02  7.037224775E+01  5.099976250E+01  2.073442444E+02  1.250000000E+02  0.00000E+00  9.000E+00
      21     1     1     2   502   512 -9.346839660E-01 -2.033237453E+01 -1.396106994E+02  1.410865921E+02  1.907348633E-06  0.00000E+00  9.000E+00
#rwgt            1           1   3.0886984682785733E-002          26      208901           0
</event>
<event>
      5   9999  3.70600E-02  2.73357E+01 -1.00000E+00  1.55896E-01
      21    -1     0     0   502   501  0.000000000E+00  0.000000000E+00  1.939183458E+02  1.939183458E+02  0.000000000E+00  0.00000E+00  9.000E+00
      21    -1     0     0   511   502  0.000000000E+00  0.000000000E+00 -2.491833151E+02  2.491833151E+02  0.000000000E+00  0.00000E+00  9.000E+00
      25     1     1     2     0     0 -1.440706354E+01 -1.106870335E+02 -7.414327827E+01  1.832523085E+02  1.250000000E+02  0.00000E+00  9.000E+00
      25     1     1     2     0     0 -1.094826752E+01  1.209021528E+02  8.086919626E+01  1.920989902E+02  1.250000000E+02  0.00000E+00  9.000E+00
      21     1     1     2   511   501  2.535533106E+01 -1.021511936E+01 -6.199088733E+01  6.775036228E+01  9.536743164E-07  0.00000E+00  9.000E+00
#rwgt            1           1   3.7491181308072705E-002          26      209212           0
</event>
<event>
      5   9999  3.70600E-02  1.57126E+02 -1.00000E+00  1.15599E-01
      21    -1     0     0   502   501  0.000000000E+00  0.000000000E+00  3.936434663E+02  3.936434663E+02  0.000000000E+00  0.00000E+00  9.000E+00
      21    -1     0     0   512   502  0.000000000E+00  0.000000000E+00 -2.437226449E+02  2.437226449E+02  0.000000000E+00  0.00000E+00  9.000E+00
      25     1     1     2     0     0 -4.336075875E+01 -4.607513509E+01 -6.975671428E+00  1.402737804E+02  1.250000000E+02  0.00000E+00  9.000E+00
      25     1     1     2     0     0  6.138685846E+01 -1.100136784E+02  2.558694072E+02  3.113928537E+02  1.250000000E+02  0.00000E+00  9.000E+00
      21     1     1     2   512   501 -1.802609971E+01  1.560888135E+02 -9.897291437E+01  1.856994770E+02  5.223489356E-06  0.00000E+00  9.000E+00
#rwgt            2          11   1.9982487724792461E-003          26      209445           0
</event>
<event>
      5   9999  3.70600E-02  8.93633E+01 -1.00000E+00  1.26063E-01
      21    -1     0     0   511   501  0.000000000E+00  0.000000000E+00  4.424822268E+02  4.424822268E+02  0.000000000E+00  0.00000E+00  9.000E+00
      21    -1     0     0   501   502  0.000000000E+00  0.000000000E+00 -7.897121924E+02  7.897121924E+02  0.000000000E+00  0.00000E+00  9.000E+00
      25     1     1     2     0     0  4.328480113E+02  3.859429360E+01  1.726425246E+02  4.840220674E+02  1.250000000E+02  0.00000E+00  9.000E+00
      25     1     1     2     0     0 -3.932776121E+02  4.153052588E+01 -5.113492874E+02  6.584034921E+02  1.250000000E+02  0.00000E+00  9.000E+00
      21     1     1     2   511   502 -3.957039928E+01 -8.012481948E+01 -8.523202840E+00  8.976885976E+01  1.072883606E-06  0.00000E+00  9.000E+00
#rwgt            1           1   5.5589276826872494E-002          26      209675           0
</event>
<event>
      5   9999  3.70600E-02  6.11354E+00 -1.00000E+00  2.24209E-01
      21    -1     0     0   502   512  0.000000000E+00  0.000000000E+00  1.202468465E+03  1.202468465E+03  0.000000000E+00  0.00000E+00  9.000E+00
      21    -1     0     0   501   502  0.000000000E+00  0.000000000E+00 -5.887068997E+01  5.887068997E+01  0.000000000E+00  0.00000E+00  9.000E+00
      25     1     1     2     0     0  2.795867027E+01 -5.198641796E+01  3.393409413E+01  1.423404287E+02  1.250000000E+02  0.00000E+00  9.000E+00
      25     1     1     2     0     0 -2.337175668E+01  4.794469138E+01  1.003740618E+03  1.012899383E+03  1.250000000E+02  0.00000E+00  9.000E+00
      21     1     1     2   501   512 -4.586913589E+00  4.041726580E+00  1.059230633E+02  1.060993434E+02  2.336015456E-06  0.00000E+00  9.000E+00
#rwgt            1           1   3.6694564952776287E-002          26      209839           0
</event>
<event>
      5   9999  3.70600E-02  4.41628E+01 -1.00000E+00  1.42221E-01
      21    -1     0     0   502   501  0.000000000E+00  0.000000000E+00  1.227998716E+02  1.227998716E+02  0.000000000E+00  0.00000E+00  9.000E+00
      21    -1     0     0   511   502  0.000000000E+00  0.000000000E+00 -4.694769268E+02  4.694769268E+02  0.000000000E+00  0.00000E+00  9.000E+00
      25     1     1     2     0     0 -2.453123119E+00  2.931105987E-02  6.432829629E+01  1.406028036E+02  1.250000000E+02  0.00000E+00  9.000E+00
      25     1     1     2     0     0  3.538803600E+01 -2.945115482E+01 -2.341681752E+02  2.694056753E+02  1.250000000E+02  0.00000E+00  9.000E+00
      21     1     1     2   511   501 -3.293491288E+01  2.942184376E+01 -1.768371762E+02  1.822683194E+02  2.697398305E-06  0.00000E+00  9.000E+00
#rwgt            1           1   3.8634841850588193E-002          26      210546           0
</event>
<event>
      5   9999  3.70600E-02  6.09146E+01 -1.00000E+00  1.34351E-01
      21    -1     0     0   502   501  0.000000000E+00  0.000000000E+00  1.803829043E+02  1.803829043E+02  0.000000000E+00  0.00000E+00  9.000E+00
      21    -1     0     0   512   502  0.000000000E+00  0.000000000E+00 -1.095570460E+03  1.095570460E+03  0.000000000E+00  0.00000E+00  9.000E+00
      25     1     1     2     0     0 -6.984577865E+01 -8.456189966E+01  5.116053951E+01  1.739872078E+02  1.250000000E+02  0.00000E+00  9.000E+00
      25     1     1     2     0     0  1.302434776E+02  7.664341074E+01 -7.725124615E+01  2.107850348E+02  1.250000000E+02  0.00000E+00  9.000E+00
      21     1     1     2   512   501 -6.039769898E+01  7.918488924E+00 -8.890968487E+02  8.911811213E+02  1.525878906E-05  0.00000E+00  9.000E+00
#rwgt            1           1   2.8215373020706751E-002          26      210852           0
</event>
<event>
      5   9999  3.70600E-02  2.99380E+01 -1.00000E+00  1.53100E-01
      21    -1     0     0   502   501  0.000000000E+00  0.000000000E+00  5.051434738E+02  5.051434738E+02  0.000000000E+00  0.00000E+00  9.000E+00
       2    -1     0     0   501     0  0.000000000E+00  0.000000000E+00 -1.224305866E+03  1.224305866E+03  0.000000000E+00  0.00000E+00  9.000E+00
      25     1     1     2     0     0  1.480404698E+01 -2.074977153E+02  3.708242462E+02  4.431817722E+02  1.250000000E+02  0.00000E+00  9.000E+00
      25     1     1     2     0     0 -4.450298132E+01  2.037220282E+02 -5.297809406E+01  2.488269651E+02  1.250000000E+02  0.00000E+00  9.000E+00
       2     1     1     2   502     0  2.969893434E+01  3.775687021E+00 -1.037008545E+03  1.037440603E+03  0.000000000E+00  0.00000E+00  9.000E+00
#rwgt            1           1   3.8032089124734117E-002          26      211211           0
</event>
<event>
      5   9999  3.70600E-02  3.91577E+00 -1.00000E+00  2.65659E-01
      21    -1     0     0   502   511  0.000000000E+00  0.000000000E+00  2.118286361E+02  2.118286361E+02  0.000000000E+00  0.00000E+00  9.000E+00
      21    -1     0     0   501   502  0.000000000E+00  0.000000000E+00 -1.754315415E+02  1.754315415E+02  0.000000000E+00  0.00000E+00  9.000E+00
      25     1     1     2     0     0 -6.412011346E+01  1.080594744E+02 -5.063705081E+01  1.843294601E+02  1.250000000E+02  0.00000E+00  9.000E+00
      25     1     1     2     0     0  6.068544865E+01 -1.099399784E+02  7.901149988E+01  1.940034526E+02  1.250000000E+02  0.00000E+00  9.000E+00
      21     1     1     2   501   511  3.434664806E+00  1.880504010E+00  8.022645511E+00  8.927264904E+00  0.000000000E+00  0.00000E+00  9.000E+00
#rwgt            1           1   5.5996674962280765E-002          26      211766           0
</event>
<event>
      5   9999  3.70600E-02  1.95074E+01 -1.00000E+00  1.67264E-01
      21    -1     0     0   502   512  0.000000000E+00  0.000000000E+00  5.405057451E+02  5.405057451E+02  0.000000000E+00  0.00000E+00  9.000E+00
      21    -1     0     0   501   502  0.000000000E+00  0.000000000E+00 -1.381697412E+02  1.381697412E+02  0.000000000E+00  0.00000E+00  9.000E+00
      25     1     1     2     0     0  1.282156201E+02  9.944802177E+00 -3.567069916E+01  1.828538846E+02  1.250000000E+02  0.00000E+00  9.000E+00
      25     1     1     2     0     0 -1.456477488E+02 -1.870036513E+01  3.012889557E+02  3.577191709E+02  1.250000000E+02  0.00000E+00  9.000E+00
      21     1     1     2   501   512  1.743212869E+01  8.755562951E+00  1.367177473E+02  1.381024309E+02  1.907348633E-06  0.00000E+00  9.000E+00
#rwgt            1           1   4.6271777817071001E-002          26      212534           0
</event>
<event>
      5   9999  3.70600E-02  3.39349E+01 -1.00000E+00  1.49410E-01
      21    -1     0     0   502   501  0.000000000E+00  0.000000000E+00  5.018181098E+01  5.018181098E+01  0.000000000E+00  0.00000E+00  9.000E+00
      21    -1     0     0   501   511  0.000000000E+00  0.000000000E+00 -8.873738819E+02  8.873738819E+02  0.000000000E+00  0.00000E+00  9.000E+00
      25     1     1     2     0     0  4.701085286E+01 -1.196999952E+02 -2.991457971E+02  3.487854886E+02  1.250000000E+02  0.00000E+00  9.000E+00
      25     1     1     2     0     0 -1.382537699E+01  1.267922215E+02 -3.063515591E+02  3.546035621E+02  1.250000000E+02  0.00000E+00  9.000E+00
      21     1     1     2   502   511 -3.318547587E+01 -7.092226359E+00 -2.316947147E+02  2.341666421E+02  3.814697266E-06  0.00000E+00  9.000E+00
#rwgt            1           1   4.0676185948526192E-002          26      213053           0
</event>
<event>
      5   9999  3.70600E-02  7.49478E+01 -1.00000E+00  1.29734E-01
      21    -1     0     0   502   512  0.000000000E+00  0.000000000E+00  5.821278792E+02  5.821278792E+02  0.000000000E+00  0.00000E+00  9.000E+00
      21    -1     0     0   501   502  0.000000000E+00  0.000000000E+00 -3.204143428E+02  3.204143428E+02  0.000000000E+00  0.00000E+00  9.000E+00
      25     1     1     2     0     0 -1.166945690E+02 -1.507683110E+02  3.285739815E+01  2.303330516E+02  1.250000000E+02  0.00000E+00  9.000E+00
      25     1     1     2     0     0  4.246427448E+01  1.404227358E+02 -1.756807158E+02  2.607881769E+02  1.250000000E+02  0.00000E+00  9.000E+00
      21     1     1     2   501   512  7.423029457E+01  1.034557517E+01  4.045368540E+02  4.114209934E+02  0.000000000E+00  0.00000E+00  9.000E+00
#rwgt            1           1   3.6329687367754541E-002          26      213181           0
</event>
<event>
      5   9999  3.70600E-02  1.34470E+02 -1.00000E+00  1.18305E-01
      21    -1     0     0   502   511  0.000000000E+00  0.000000000E+00  2.799632034E+02  2.799632034E+02  0.000000000E+00  0.00000E+00  9.000E+00
      21    -1     0     0   501   502  0.000000000E+00  0.000000000E+00 -4.593140955E+02  4.593140955E+02  0.000000000E+00  0.00000E+00  9.000E+00
      25     1     1     2     0     0  1.493400295E+02  9.449032967E+01  1.348747251E+01  2.168819465E+02  1.250000000E+02  0.00000E+00  9.000E+00
      25     1     1     2     0     0 -2.374133293E+02  7.122482510E+00 -2.585947680E+02  3.727090993E+02  1.250000000E+02  0.00000E+00  9.000E+00
      21     1     1     2   501   511  8.807329982E+01 -1.016128122E+02  6.575640347E+01  1.496862530E+02  9.536743164E-07  0.00000E+00  9.000E+00
#rwgt            1           1   3.7101441425390513E-002          26      213581           0
</event>
<event>
      5   9999  3.70600E-02  6.13151E+01 -1.00000E+00  1.34200E-01
      21    -1     0     0   502   501  0.000000000E+00  0.000000000E+00  3.750403794E+02  3.750403794E+02  0.000000000E+00  0.00000E+00  9.000E+00
       1    -1     0     0   501     0  0.000000000E+00  0.000000000E+00 -2.878407067E+02  2.878407067E+02  0.000000000E+00  0.00000E+00  9.000E+00
      25     1     1     2     0     0  8.252981379E+01 -1.587160478E+01  2.987869037E+02  3.346067719E+02  1.250000000E+02  0.00000E+00  9.000E+00
      25     1     1     2     0     0 -1.079427920E+02 -3.992914622E+01 -9.041722703E+01  1.924740450E+02  1.250000000E+02  0.00000E+00  9.000E+00
       1     1     1     2   502     0  2.541297817E+01  5.580075101E+01 -1.211700040E+02  1.358002693E+02  1.907348633E-06  0.00000E+00  9.000E+00
#rwgt            1           1   3.8975874526492683E-002          26      213744           0
</event>
<event>
      5   9999  3.70600E-02  3.20177E+01 -1.00000E+00  1.51099E-01
      21    -1     0     0   511   501  0.000000000E+00  0.000000000E+00  1.885308775E+01  1.885308775E+01  0.000000000E+00  0.00000E+00  9.000E+00
      21    -1     0     0   501   502  0.000000000E+00  0.000000000E+00 -1.660616434E+03  1.660616434E+03  0.000000000E+00  0.00000E+00  9.000E+00
      25     1     1     2     0     0 -1.404695971E+01  8.981417152E+01 -9.114204892E+02  9.244329130E+02  1.250000000E+02  0.00000E+00  9.000E+00
      25     1     1     2     0     0  4.288829398E+01 -7.591050324E+01 -6.653983042E+02  6.826285326E+02  1.250000000E+02  0.00000E+00  9.000E+00
      21     1     1     2   511   502 -2.884133428E+01 -1.390366828E+01 -6.494455307E+01  7.240807640E+01  9.536743164E-07  0.00000E+00  9.000E+00
#rwgt            1           1   9.1411275214526855E-002          26      214018           0
</event>
<event>
      5   9999  3.70600E-02  3.39099E+01 -1.00000E+00  1.49431E-01
      21    -1     0     0   502   501  0.000000000E+00  0.000000000E+00  2.380352769E+03  2.380352769E+03  0.000000000E+00  0.00000E+00  9.000E+00
      21    -1     0     0   501   512  0.000000000E+00  0.000000000E+00 -8.326326731E+01  8.326326731E+01  0.000000000E+00  0.00000E+00  9.000E+00
      25     1     1     2     0     0  1.116177419E+02 -8.229649456E+01  3.963616403E+02  4.381310115E+02  1.250000000E+02  0.00000E+00  9.000E+00
      25     1     1     2     0     0 -1.129428949E+02  4.841247924E+01  1.954266100E+03  1.962111326E+03  1.250000000E+02  0.00000E+00  9.000E+00
      21     1     1     2   502   512  1.325152952E+00  3.388401532E+01 -5.353823945E+01  6.337369808E+01  2.611744678E-06  0.00000E+00  9.000E+00
#rwgt            1           1   8.3247004728174409E-002          26      214347           0
</event>
<event>
      5   9999  3.70600E-02  1.15738E+02 -1.00000E+00  1.21037E-01
      21    -1     0     0   502   511  0.000000000E+00  0.000000000E+00  3.491814082E+02  3.491814082E+02  0.000000000E+00  0.00000E+00  9.000E+00
      21    -1     0     0   501   502  0.000000000E+00  0.000000000E+00 -3.118071815E+02  3.118071815E+02  0.000000000E+00  0.00000E+00  9.000E+00
      25     1     1     2     0     0  1.757226111E+02 -1.619876716E+02  1.464984761E+02  3.069287300E+02  1.250000000E+02  0.00000E+00  9.000E+00
      25     1     1     2     0     0 -1.320278006E+02  5.481490804E+01 -1.380358009E+02  2.347656206E+02  1.250000000E+02  0.00000E+00  9.000E+00
      21     1     1     2   501   511 -4.369481041E+01  1.071727635E+02  2.891155144E+01  1.192942392E+02  1.617033478E-06  0.00000E+00  9.000E+00
#rwgt            1           1   4.0054791105008203E-002          26      214715           0
</event>
<event>
      5   9999  3.70600E-02  4.50391E+01 -1.00000E+00  1.41713E-01
      21    -1     0     0   502   501  0.000000000E+00  0.000000000E+00  1.555368077E+02  1.555368077E+02  0.000000000E+00  0.00000E+00  9.000E+00
      21    -1     0     0   501   512  0.000000000E+00  0.000000000E+00 -4.113065077E+02  4.113065077E+02  0.000000000E+00  0.00000E+00  9.000E+00
      25     1     1     2     0     0  1.594985116E+02  4.869661070E+01 -1.570088905E+02  2.609366337E+02  1.250000000E+02  0.00000E+00  9.000E+00
      25     1     1     2     0     0 -1.942416054E+02 -7.735729551E+01 -7.441537827E+01  2.547088553E+02  1.250000000E+02  0.00000E+00  9.000E+00
      21     1     1     2   502   512  3.474309371E+01  2.866068482E+01 -2.434543123E+01  5.119782648E+01  9.536743164E-07  0.00000E+00  9.000E+00
#rwgt            1           1   4.0147994385199622E-002          26      215000           0
</event>
<event>
      5   9999  3.70600E-02  1.70142E+01 -1.00000E+00  1.72376E-01
      21    -1     0     0   511   501  0.000000000E+00  0.000000000E+00  3.543439754E+01  3.543439754E+01  0.000000000E+00  0.00000E+00  9.000E+00
      21    -1     0     0   501   502  0.000000000E+00  0.000000000E+00 -1.131458374E+03  1.131458374E+03  0.000000000E+00  0.00000E+00  9.000E+00
      25     1     1     2     0     0 -2.186668573E+01  1.103487620E+02 -2.747157902E+02  3.221005536E+02  1.250000000E+02  0.00000E+00  9.000E+00
      25     1     1     2     0     0  3.362465280E+01 -1.226464727E+02 -7.798736925E+02  8.000004693E+02  1.250000000E+02  0.00000E+00  9.000E+00
      21     1     1     2   511   502 -1.175796708E+01  1.229771074E+01 -4.143449348E+01  4.479174845E+01  4.768371582E-07  0.00000E+00  9.000E+00
#rwgt            1           1   4.0477878557485518E-002          26      215257           0
</event>
<event>
      5   9999  3.70600E-02  6.62824E+01 -1.00000E+00  1.32430E-01
      21    -1     0     0   502   501  0.000000000E+00  0.000000000E+00  6.086637974E+02  6.086637974E+02  0.000000000E+00  0.00000E+00  9.000E+00
      21    -1     0     0   501   512  0.000000000E+00  0.000000000E+00 -9.421367582E+01  9.421367582E+01  0.000000000E+00  0.00000E+00  9.000E+00
      25     1     1     2     0     0 -5.688167553E+01 -1.109372058E+02  2.686374970E+02  3.214555855E+02  1.250000000E+02  0.00000E+00  9.000E+00
      25     1     1     2     0     0  1.142124617E+02  1.442019238E+02  2.109293829E+02  3.065206123E+02  1.250000000E+02  0.00000E+00  9.000E+00
      21     1     1     2   502   512 -5.733078617E+01 -3.326471798E+01  3.488324165E+01  7.490127538E+01  8.259061849E-07  0.00000E+00  9.000E+00
#rwgt            1           1   5.2574374966952601E-002          26      215541           0
</event>
<event>
      5   9999  3.70600E-02  2.94807E+01 -1.00000E+00  1.53566E-01
      21    -1     0     0   502   501  0.000000000E+00  0.000000000E+00  4.947012229E+01  4.947012229E+01  0.000000000E+00  0.00000E+00  9.000E+00
      21    -1     0     0   501   511  0.000000000E+00  0.000000000E+00 -3.578463339E+03  3.578463339E+03  0.000000000E+00  0.00000E+00  9.000E+00
      25     1     1     2     0     0 -2.336517785E+02 -1.657477789E+01 -4.655565210E+02  5.359437947E+02  1.250000000E+02  0.00000E+00  9.000E+00
      25     1     1     2     0     0  2.204513039E+02 -9.785456300E+00 -1.121049128E+03  1.149378389E+03  1.250000000E+02  0.00000E+00  9.000E+00
      21     1     1     2   502   511  1.320047468E+01  2.636023419E+01 -1.942387568E+03  1.942611278E+03  3.051757812E-05  0.00000E+00  9.000E+00
#rwgt            1           1   3.8133591301049825E-002          26      215959           0
</event>
<event>
      5   9999  3.70600E-02  2.74241E+01 -1.00000E+00  1.55795E-01
      21    -1     0     0   512   501  0.000000000E+00  0.000000000E+00  5.211188214E+02  5.211188214E+02  0.000000000E+00  0.00000E+00  9.000E+00
      21    -1     0     0   501   502  0.000000000E+00  0.000000000E+00 -1.567855372E+02  1.567855372E+02  0.000000000E+00  0.00000E+00  9.000E+00
      25     1     1     2     0     0  5.481119010E+01 -9.704150309E+01  2.410492134E+02  2.935149794E+02  1.250000000E+02  0.00000E+00  9.000E+00
      25     1     1     2     0     0 -2.785668836E+01  9.198836969E+01 -8.169329198E+01  1.775856109E+02  1.250000000E+02  0.00000E+00  9.000E+00
      21     1     1     2   512   502 -2.695450174E+01  5.053133396E+00  2.049773628E+02  2.068037683E+02  3.814697266E-06  0.00000E+00  9.000E+00
#rwgt            1           1   4.4011569336881669E-002          26      216436           0
</event>
<event>
      5   9999  3.70600E-02  4.17994E+01 -1.00000E+00  1.43663E-01
      21    -1     0     0   502   501  0.000000000E+00  0.000000000E+00  1.374272975E+02  1.374272975E+02  0.000000000E+00  0.00000E+00  9.000E+00
      21    -1     0     0   501   511  0.000000000E+00  0.000000000E+00 -6.114515859E+02  6.114515859E+02  0.000000000E+00  0.00000E+00  9.000E+00
      25     1     1     2     0     0 -8.986573481E+01 -5.064122415E+00 -3.039979431E+02  3.407950191E+02  1.250000000E+02  0.00000E+00  9.000E+00
      25     1     1     2     0     0  1.040889881E+02 -3.424091886E+01  5.815331782E+01  1.761072581E+02  1.250000000E+02  0.00000E+00  9.000E+00
      21     1     1     2   502   511 -1.422325328E+01  3.930504127E+01 -2.281796631E+02  2.319766063E+02  4.672030912E-06  0.00000E+00  9.000E+00
#rwgt            1           1   3.4400441580536380E-002          26      216637           0
</event>
<event>
      5   9999  3.70600E-02  1.33947E+02 -1.00000E+00  1.18374E-01
      21    -1     0     0   502   501  0.000000000E+00  0.000000000E+00  3.135643256E+02  3.135643256E+02  0.000000000E+00  0.00000E+00  9.000E+00
      -2    -1     0     0     0   502  0.000000000E+00  0.000000000E+00 -3.249613465E+02  3.249613465E+02  0.000000000E+00  0.00000E+00  9.000E+00
      25     1     1     2     0     0  1.015517815E+02 -1.410172795E+02  2.508443583E+01  2.155292703E+02  1.250000000E+02  0.00000E+00  9.000E+00
      25     1     1     2     0     0  3.119242352E+01  1.231079542E+02  1.216494826E+02  2.157594315E+02  1.250000000E+02  0.00000E+00  9.000E+00
      -2     1     1     2     0   501 -1.327442050E+02  1.790932527E+01 -1.581309393E+02  2.072369703E+02  0.000000000E+00  0.00000E+00  9.000E+00
#rwgt            1           1   4.6315975869995134E-002          26      217104           0
</event>
<event>
      5   9999  3.70600E-02  1.91391E+02 -1.00000E+00  1.12347E-01
      21    -1     0     0   502   501  0.000000000E+00  0.000000000E+00  1.652176337E+03  1.652176337E+03  0.000000000E+00  0.00000E+00  9.000E+00
      21    -1     0     0   501   511  0.000000000E+00  0.000000000E+00 -2.547744631E+02  2.547744631E+02  0.000000000E+00  0.00000E+00  9.000E+00
      25     1     1     2     0     0  2.510310129E+02  1.105424378E+01  1.139440297E+03  1.173493910E+03  1.250000000E+02  0.00000E+00  9.000E+00
      25     1     1     2     0     0 -4.418556511E+02  3.660211171E+00  2.845534871E+02  5.402272675E+02  1.250000000E+02  0.00000E+00  9.000E+00
      21     1     1     2   502   511  1.908246381E+02 -1.471445495E+01 -2.659190961E+01  1.932296234E+02  1.994752947E-06  0.00000E+00  9.000E+00
#rwgt            2          11   2.0262413508098645E-003          26      217341           0
</event>
<event>
      5   9999  3.70600E-02  8.13012E+01 -1.00000E+00  1.28009E-01
      21    -1     0     0   502   501  0.000000000E+00  0.000000000E+00  1.519399998E+02  1.519399998E+02  0.000000000E+00  0.00000E+00  9.000E+00
       1    -1     0     0   501     0  0.000000000E+00  0.000000000E+00 -1.225493822E+03  1.225493822E+03  0.000000000E+00  0.00000E+00  9.000E+00
      25     1     1     2     0     0 -2.272545046E+01  8.511762124E+01  5.131896018E+01  1.613074432E+02  1.250000000E+02  0.00000E+00  9.000E+00
      25     1     1     2     0     0 -5.439979126E+01 -1.108387069E+02 -1.315649802E+02  2.194969254E+02  1.250000000E+02  0.00000E+00  9.000E+00
       1     1     1     2   502     0  7.712524171E+01  2.572108563E+01 -9.933078021E+02  9.966294531E+02  1.078959322E-05  0.00000E+00  9.000E+00
#rwgt            1           1   1.9094344786939627E-002          26      217481           0
</event>
<event>
      5   9999  3.70600E-02  4.70242E+01 -1.00000E+00  1.40611E-01
       3    -1     0     0   502     0  0.000000000E+00  0.000000000E+00  3.352914137E+02  3.352914137E+02  0.000000000E+00  0.00000E+00  9.000E+00
      21    -1     0     0   501   502  0.000000000E+00  0.000000000E+00 -1.814350292E+02  1.814350292E+02  0.000000000E+00  0.00000E+00  9.000E+00
      25     1     1     2     0     0  1.095209724E+02 -9.054187474E+01  3.452051809E+01  1.923781190E+02  1.250000000E+02  0.00000E+00  9.000E+00
      25     1     1     2     0     0 -1.471173001E+02  6.229660669E+01  7.458569808E+00  2.029901412E+02  1.250000000E+02  0.00000E+00  9.000E+00
       3     1     1     2   501     0  3.759632763E+01  2.824526806E+01  1.118772966E+02  1.213581827E+02  0.000000000E+00  0.00000E+00  9.000E+00
#rwgt            1           1   3.1820915461691836E-002          26      217810           0
</event>
<event>
      5   9999  3.70600E-02  1.60461E+01 -1.00000E+00  1.74665E-01
      21    -1     0     0   502   501  0.000000000E+00  0.000000000E+00  8.600922304E+01  8.600922304E+01  0.000000000E+00  0.00000E+00  9.000E+00
      21    -1     0     0   511   502  0.000000000E+00  0.000000000E+00 -7.571380317E+02  7.571380317E+02  0.000000000E+00  0.00000E+00  9.000E+00
      25     1     1     2     0     0 -9.292312077E+01 -1.861146424E+02 -3.117413941E+02  3.950709598E+02  1.250000000E+02  0.00000E+00  9.000E+00
      25     1     1     2     0     0  1.072185495E+02  1.788263934E+02 -2.977724910E+02  3.844062340E+02  1.250000000E+02  0.00000E+00  9.000E+00
      21     1     1     2   511   501 -1.429542878E+01  7.288249033E+00 -6.161492351E+01  6.367006092E+01  1.348699152E-06  0.00000E+00  9.000E+00
#rwgt            1           1   3.5801752738285744E-002          26      218115           0
</event>
<event>
      5   9999  3.70600E-02  1.08870E+01 -1.00000E+00  1.91581E-01
      -5    -1     0     0     0   501  0.000000000E+00  0.000000000E+00  3.984012821E+02  3.984012821E+02  0.000000000E+00  0.00000E+00  9.000E+00
      21    -1     0     0   501   502  0.000000000E+00  0.000000000E+00 -3.622370017E+02  3.622370017E+02  0.000000000E+00  0.00000E+00  9.000E+00
      25     1     1     2     0     0 -4.399053106E+01  1.785149866E+02 -1.200938388E+02  2.526861638E+02  1.250000000E+02  0.00000E+00  9.000E+00
      25     1     1     2     0     0  4.043672582E+01 -1.888055908E+02 -1.004639047E+02  2.509993547E+02  1.250000000E+02  0.00000E+00  9.000E+00
      -5     1     1     2     0   502  3.553805243E+00  1.029060425E+01  2.567220239E+02  2.569527653E+02  5.394796609E-06  0.00000E+00  9.000E+00
#rwgt            1           1  0.10874084874052257               26      218517           0
</event>
<event>
      5   9999  3.70600E-02  3.85819E+01 -1.00000E+00  1.45817E-01
      -1    -1     0     0     0   501  0.000000000E+00  0.000000000E+00  2.571533270E+02  2.571533270E+02  0.000000000E+00  0.00000E+00  9.000E+00
      21    -1     0     0   501   502  0.000000000E+00  0.000000000E+00 -7.888582477E+02  7.888582477E+02  0.000000000E+00  0.00000E+00  9.000E+00
      25     1     1     2     0     0 -4.933686771E+01  1.327777496E+02 -1.351981482E+02  2.323092692E+02  1.250000000E+02  0.00000E+00  9.000E+00
      25     1     1     2     0     0  2.196844670E+01 -1.055834724E+02 -5.919225350E+02  6.145142551E+02  1.250000000E+02  0.00000E+00  9.000E+00
      -1     1     1     2     0   502  2.736842101E+01 -2.719427716E+01  1.954157625E+02  1.991880504E+02  2.697398305E-06  0.00000E+00  9.000E+00
#rwgt            1           1   3.5240819918910635E-002          26      219049           0
</event>
<event>
      5   9999  3.70600E-02  9.32078E+01 -1.00000E+00  1.25216E-01
      21    -1     0     0   502   501  0.000000000E+00  0.000000000E+00  8.542763487E+02  8.542763487E+02  0.000000000E+00  0.00000E+00  9.000E+00
      21    -1     0     0   511   502  0.000000000E+00  0.000000000E+00 -1.454160778E+02  1.454160778E+02  0.000000000E+00  0.00000E+00  9.000E+00
      25     1     1     2     0     0  4.371372415E+00  4.078016431E+01  6.337969769E+02  6.473065260E+02  1.250000000E+02  0.00000E+00  9.000E+00
      25     1     1     2     0     0  2.368054354E+01 -1.296664837E+02  1.477743239E+02  2.341717659E+02  1.250000000E+02  0.00000E+00  9.000E+00
      21     1     1     2   511   501 -2.805191595E+01  8.888631942E+01 -7.271102986E+01  1.182141347E+02  2.336015456E-06  0.00000E+00  9.000E+00
#rwgt            1           1   4.3799426084713246E-002          26      219219           0
</event>
<event>
      5   9999  3.70600E-02  1.48302E+01 -1.00000E+00  1.77847E-01
      21    -1     0     0   502   501  0.000000000E+00  0.000000000E+00  2.087670397E+02  2.087670397E+02  0.000000000E+00  0.00000E+00  9.000E+00
      21    -1     0     0   512   502  0.000000000E+00  0.000000000E+00 -3.789103857E+02  3.789103857E+02  0.000000000E+00  0.00000E+00  9.000E+00
      25     1     1     2     0     0 -5.908564929E+01  1.647266181E+02 -4.111540721E+01  2.189553593E+02  1.250000000E+02  0.00000E+00  9.000E+00
      25     1     1     2     0     0  4.680044112E+01 -1.564195434E+02  3.105070781E+01  2.079579315E+02  1.250000000E+02  0.00000E+00  9.000E+00
      21     1     1     2   512   501  1.228520817E+01 -8.307074754E+00 -1.600786466E+02  1.607641345E+02  0.000000000E+00  0.00000E+00  9.000E+00
#rwgt            1           1   5.0294724672221701E-002          26      219472           0
</event>
<event>
      5   9999  3.70600E-02  2.59508E+01 -1.00000E+00  1.57543E-01
      21    -1     0     0   502   501  0.000000000E+00  0.000000000E+00  1.323701987E+03  1.323701987E+03  0.000000000E+00  0.00000E+00  9.000E+00
      21    -1     0     0   501   511  0.000000000E+00  0.000000000E+00 -7.233616538E+01  7.233616538E+01  0.000000000E+00  0.00000E+00  9.000E+00
      25     1     1     2     0     0  1.263458408E+02  1.261330604E+02  3.568695940E+02  4.181551477E+02  1.250000000E+02  0.00000E+00  9.000E+00
      25     1     1     2     0     0 -1.045501854E+02 -1.402182508E+02  9.180206348E+02  9.428567150E+02  1.250000000E+02  0.00000E+00  9.000E+00
      21     1     1     2   502   511 -2.179565537E+01  1.408519040E+01 -2.352440765E+01  3.502628923E+01  6.743495762E-07  0.00000E+00  9.000E+00
#rwgt            1           1   5.6737448478727130E-002          26      220107           0
</event>
<event>
      5   9999  3.70600E-02  3.87498E+02 -1.00000E+00  1.02101E-01
      21    -1     0     0   502   501  0.000000000E+00  0.000000000E+00  1.016549761E+03  1.016549761E+03  0.000000000E+00  0.00000E+00  9.000E+00
      21    -1     0     0   501   512  0.000000000E+00  0.000000000E+00 -5.471119314E+02  5.471119314E+02  0.000000000E+00  0.00000E+00  9.000E+00
      25     1     1     2     0     0  2.561646205E+02 -1.367628630E+02  1.940999367E+02  3.709773294E+02  1.250000000E+02  0.00000E+00  9.000E+00
      25     1     1     2     0     0  1.044939278E+02 -4.942244811E+00  6.400913317E+02  6.605189775E+02  1.250000000E+02  0.00000E+00  9.000E+00
      21     1     1     2   502   512 -3.606585483E+02  1.417051078E+02 -3.647534390E+02  5.321653853E+02  9.344061824E-06  0.00000E+00  9.000E+00
#rwgt            1           1   5.1861883244414916E-002          26      220439           0
</event>
<event>
      5   9999  3.70600E-02  1.05135E+02 -1.00000E+00  1.22856E-01
      21    -1     0     0   511   501  0.000000000E+00  0.000000000E+00  1.480653787E+03  1.480653787E+03  0.000000000E+00  0.00000E+00  9.000E+00
      21    -1     0     0   501   502  0.000000000E+00  0.000000000E+00 -6.566997999E+01  6.566997999E+01  0.000000000E+00  0.00000E+00  9.000E+00
      25     1     1     2     0     0 -1.521328946E+02  7.810977402E+01  1.687954295E+02  2.708550377E+02  1.250000000E+02  0.00000E+00  9.000E+00
      25     1     1     2     0     0  4.725830946E+01 -8.550113129E+01  5.921304597E+02  6.130149040E+02  1.250000000E+02  0.00000E+00  9.000E+00
      21     1     1     2   511   502  1.048745851E+02  7.391357269E+00  6.540579183E+02  6.624538258E+02  0.000000000E+00  0.00000E+00  9.000E+00
#rwgt            1           1   4.0537170802290752E-002          26      220559           0
</event>
<event>
      5   9999  3.70600E-02  1.59632E+01 -1.00000E+00  1.74871E-01
      21    -1     0     0   502   512  0.000000000E+00  0.000000000E+00  3.527353489E+02  3.527353489E+02  0.000000000E+00  0.00000E+00  9.000E+00
      21    -1     0     0   501   502  0.000000000E+00  0.000000000E+00 -3.266081933E+02  3.266081933E+02  0.000000000E+00  0.00000E+00  9.000E+00
      25     1     1     2     0     0  2.270461889E+02 -1.427118720E+02 -1.302151627E+02  3.232609455E+02  1.250000000E+02  0.00000E+00  9.000E+00
      25     1     1     2     0     0 -2.358517828E+02  1.293969769E+02  1.270059706E+02  3.226843002E+02  1.250000000E+02  0.00000E+00  9.000E+00
      21     1     1     2   501   512  8.805593909E+00  1.331489510E+01  2.933634773E+01  3.339829657E+01  3.371747881E-07  0.00000E+00  9.000E+00
#rwgt            1           1   4.0595887395216447E-002          26      220700           0
</event>
<event>
      5   9999  3.70600E-02  1.99282E+01 -1.00000E+00  1.66495E-01
      21    -1     0     0   502   501  0.000000000E+00  0.000000000E+00  1.284667890E+03  1.284667890E+03  0.000000000E+00  0.00000E+00  9.000E+00
      -4    -1     0     0     0   502  0.000000000E+00  0.000000000E+00 -1.776886553E+02  1.776886553E+02  0.000000000E+00  0.00000E+00  9.000E+00
      25     1     1     2     0     0  2.702593201E+01 -2.155234610E+02  3.574082571E+02  4.365162374E+02  1.250000000E+02  0.00000E+00  9.000E+00
      25     1     1     2     0     0 -7.429340631E+00  2.119031712E+02  8.698080079E+02  9.039630079E+02  1.250000000E+02  0.00000E+00  9.000E+00
      -4     1     1     2     0   501 -1.959659138E+01  3.620289723E+00 -1.202370301E+02  1.218773002E+02  4.264961200E-06  0.00000E+00  9.000E+00
#rwgt            1           1   3.8572400424901315E-002          26      221144           0
</event>
<event>
      5   9999  3.70600E-02  8.43977E+01 -1.00000E+00  1.27233E-01
      21    -1     0     0   502   501  0.000000000E+00  0.000000000E+00  1.069727368E+03  1.069727368E+03  0.000000000E+00  0.00000E+00  9.000E+00
      21    -1     0     0   501   511  0.000000000E+00  0.000000000E+00 -5.849477650E+01  5.849477650E+01  0.000000000E+00  0.00000E+00  9.000E+00
      25     1     1     2     0     0  1.867322199E+02 -9.845528247E+00  5.460737434E+02  5.905822463E+02  1.250000000E+02  0.00000E+00  9.000E+00
      25     1     1     2     0     0 -1.031897619E+02 -2.138860267E+00  3.981189183E+02  4.298562257E+02  1.250000000E+02  0.00000E+00  9.000E+00
      21     1     1     2   502   511 -8.354245794E+01  1.198438851E+01  6.703992948E+01  1.077836722E+02  1.651812370E-06  0.00000E+00  9.000E+00
#rwgt            1           1   4.2280834185306447E-002          26      221593           0
</event>
<event>
      5   9999  3.70600E-02  2.15943E+02 -1.00000E+00  1.10447E-01
      21    -1     0     0   502   512  0.000000000E+00  0.000000000E+00  2.533711127E+02  2.533711127E+02  0.000000000E+00  0.00000E+00  9.000E+00
      21    -1     0     0   501   502  0.000000000E+00  0.000000000E+00 -1.089654618E+03  1.089654618E+03  0.000000000E+00  0.00000E+00  9.000E+00
      25     1     1     2     0     0  5.299086339E+01  6.877642368E+01  5.974144136E+01  1.635000547E+02  1.250000000E+02  0.00000E+00  9.000E+00
      25     1     1     2     0     0  1.360091195E+02 -1.732282543E+02 -9.273651346E+02  9.613207589E+02  1.250000000E+02  0.00000E+00  9.000E+00
      21     1     1     2   501   512 -1.889999829E+02  1.044518306E+02  3.134018791E+01  2.182049171E+02  3.388564683E-06  0.00000E+00  9.000E+00
#rwgt            2          11   2.5327152817965761E-003          26      221859           0
</event>
<event>
      5   9999  3.70600E-02  1.22222E+01 -1.00000E+00  1.86190E-01
      21    -1     0     0   502   501  0.000000000E+00  0.000000000E+00  3.085561393E+02  3.085561393E+02  0.000000000E+00  0.00000E+00  9.000E+00
      21    -1     0     0   501   511  0.000000000E+00  0.000000000E+00 -5.448527317E+02  5.448527317E+02  0.000000000E+00  0.00000E+00  9.000E+00
      25     1     1     2     0     0 -1.353328536E+02  2.516850379E+01  2.088319563E+02  2.796144145E+02  1.250000000E+02  0.00000E+00  9.000E+00
      25     1     1     2     0     0  1.235314449E+02 -2.834797420E+01 -5.909222569E+01  1.875646999E+02  1.250000000E+02  0.00000E+00  9.000E+00
      21     1     1     2   502   511  1.180140879E+01  3.179470410E+00 -3.860363229E+02  3.862297566E+02  0.000000000E+00  0.00000E+00  9.000E+00
#rwgt            1           1   3.7329752146984911E-002          26      223244           0
</event>
<event>
      5   9999  3.70600E-02  2.78809E+01 -1.00000E+00  1.55280E-01
      21    -1     0     0   502   512  0.000000000E+00  0.000000000E+00  1.675992428E+02  1.675992428E+02  0.000000000E+00  0.00000E+00  9.000E+00
      21    -1     0     0   501   502  0.000000000E+00  0.000000000E+00 -3.362587174E+02  3.362587174E+02  0.000000000E+00  0.00000E+00  9.000E+00
      25     1     1     2     0     0 -9.482039945E+01 -1.160228566E+02 -2.071080158E+02  2.845539345E+02  1.250000000E+02  0.00000E+00  9.000E+00
      25     1     1     2     0     0  9.933061177E+01  8.850917587E+01  1.552918436E+01  1.832118998E+02  1.250000000E+02  0.00000E+00  9.000E+00
      21     1     1     2   501   512 -4.510212318E+00  2.751368075E+01  2.291935682E+01  3.609212602E+01  0.000000000E+00  0.00000E+00  9.000E+00
#rwgt            1           1   4.0916537162975226E-002          26      224022           0
</event>
<event>
      5   9999  3.70600E-02  3.93077E+01 -1.00000E+00  1.45310E-01
      21    -1     0     0   502   501  0.000000000E+00  0.000000000E+00  2.687808760E+02  2.687808760E+02  0.000000000E+00  0.00000E+00  9.000E+00
      21    -1     0     0   511   502  0.000000000E+00  0.000000000E+00 -1.901744069E+03  1.901744069E+03  0.000000000E+00  0.00000E+00  9.000E+00
      25     1     1     2     0     0  5.828534059E+02  1.170347566E+02 -3.174118012E+02  6.854126338E+02  1.250000000E+02  0.00000E+00  9.000E+00
      25     1     1     2     0     0 -6.199794402E+02 -1.299480249E+02 -1.194447971E+03  1.357789362E+03  1.250000000E+02  0.00000E+00  9.000E+00
      21     1     1     2   511   501  3.712603427E+01  1.291326825E+01 -1.211034207E+02  1.273229493E+02  0.000000000E+00  0.00000E+00  9.000E+00
#rwgt            1           1   1.7178155590324345E-002          26      224317           0
</event>
<event>
      5   9999  3.70600E-02  3.10217E+01 -1.00000E+00  1.52034E-01
      21    -1     0     0   512   501  0.000000000E+00  0.000000000E+00  2.217420690E+03  2.217420690E+03  0.000000000E+00  0.00000E+00  9.000E+00
      21    -1     0     0   501   502  0.000000000E+00  0.000000000E+00 -5.105808806E+01  5.105808806E+01  0.000000000E+00  0.00000E+00  9.000E+00
      25     1     1     2     0     0  2.071366879E+02 -1.049124302E+01  5.056879258E+02  5.606790098E+02  1.250000000E+02  0.00000E+00  9.000E+00
      25     1     1     2     0     0 -2.104944412E+02  4.133067083E+01  6.372779606E+02  6.839329888E+02  1.250000000E+02  0.00000E+00  9.000E+00
      21     1     1     2   512   502  3.357753339E+00 -3.083942781E+01  1.023396716E+03  1.023866780E+03  1.868812365E-05  0.00000E+00  9.000E+00
#rwgt            1           1   1.2709919283753790E-002          26      224956           0
</event>
<event>
      5   9999  3.70600E-02  1.93544E+01 -1.00000E+00  1.67550E-01
      21    -1     0     0   502   501  0.000000000E+00  0.000000000E+00  1.856472211E+02  1.856472211E+02  0.000000000E+00  0.00000E+00  9.000E+00
      21    -1     0     0   501   511  0.000000000E+00  0.000000000E+00 -3.483586672E+02  3.483586672E+02  0.000000000E+00  0.00000E+00  9.000E+00
      25     1     1     2     0     0 -1.740097077E+02 -4.023258612E+01 -8.069858562E+01  2.324549442E+02  1.250000000E+02  0.00000E+00  9.000E+00
      25     1     1     2     0     0  1.557879213E+02  3.370880618E+01  1.453494470E+01  2.030823101E+02  1.250000000E+02  0.00000E+00  9.000E+00
      21     1     1     2   502   511  1.822178644E+01  6.523779944E+00 -9.654780521E+01  9.846863408E+01  1.348699152E-06  0.00000E+00  9.000E+00
#rwgt            1           1   3.8437683904837691E-002          26      225178           0
</event>
<event>
      5   9999  3.70600E-02  3.97810E+01 -1.00000E+00  1.44986E-01
      21    -1     0     0   502   501  0.000000000E+00  0.000000000E+00  2.668426198E+02  2.668426198E+02  0.000000000E+00  0.00000E+00  9.000E+00
       2    -1     0     0   501     0  0.000000000E+00  0.000000000E+00 -9.167184845E+02  9.167184845E+02  0.000000000E+00  0.00000E+00  9.000E+00
      25     1     1     2     0     0 -3.226034977E+01  1.444520450E+02  6.967948304E+01  2.058818929E+02  1.250000000E+02  0.00000E+00  9.000E+00
      25     1     1     2     0     0  1.272668474E+01 -1.791069577E+02  3.544096779E+01  2.216355861E+02  1.250000000E+02  0.00000E+00  9.000E+00
       2     1     1     2   502     0  1.953366503E+01  3.465491276E+01 -7.549963155E+02  7.560436254E+02  1.078959322E-05  0.00000E+00  9.000E+00
#rwgt            1           1   2.9964406620871010E-002          26      225999           0
</event>
<event>
      5   9999  3.70600E-02  2.23244E+01 -1.00000E+00  1.62520E-01
      21    -1     0     0   502   501  0.000000000E+00  0.000000000E+00  7.763549344E+02  7.763549344E+02  0.000000000E+00  0.00000E+00  9.000E+00
      21    -1     0     0   501   511  0.000000000E+00  0.000000000E+00 -5.241673364E+02  5.241673364E+02  0.000000000E+00  0.00000E+00  9.000E+00
      25     1     1     2     0     0  9.355666730E+01  6.431639209E+01  4.295385275E+02  4.615385086E+02  1.250000000E+02  0.00000E+00  9.000E+00
      25     1     1     2     0     0 -1.158791606E+02 -6.460479964E+01  3.054292174E+02  3.556877378E+02  1.250000000E+02  0.00000E+00  9.000E+00
      21     1     1     2   502   511  2.232249327E+01  2.884075458E-01 -4.827801469E+02  4.832960244E+02  7.629394531E-06  0.00000E+00  9.000E+00
#rwgt            1           1   3.6750322798455186E-002          26      226179           0
</event>
<event>
      5   9999  3.70600E-02  6.34885E+00 -1.00000E+00  2.21721E-01
      21    -1     0     0   502   501  0.000000000E+00  0.000000000E+00  1.741700023E+02  1.741700023E+02  0.000000000E+00  0.00000E+00  9.000E+00
      21    -1     0     0   501   512  0.000000000E+00  0.000000000E+00 -1.419239447E+02  1.419239447E+02  0.000000000E+00  0.00000E+00  9.000E+00
      25     1     1     2     0     0  7.014796845E+01  4.716713127E+01  6.051620792E+00  1.510201903E+02  1.250000000E+02  0.00000E+00  9.000E+00
      25     1     1     2     0     0 -7.537581576E+01 -5.076955638E+01  3.033542419E+01  1.574938076E+02  1.250000000E+02  0.00000E+00  9.000E+00
      21     1     1     2   502   512  5.227847309E+00  3.602425112E+00 -4.140987339E+00  7.579949228E+00  1.032382731E-07  0.00000E+00  9.000E+00
#rwgt            1           1   1.8092885783332426E-002          26      226547           0
</event>
<event>
      5   9999  3.70600E-02  3.49125E+01 -1.00000E+00  1.48599E-01
      21    -1     0     0   502   511  0.000000000E+00  0.000000000E+00  6.575539521E+01  6.575539521E+01  0.000000000E+00  0.00000E+00  9.000E+00
      21    -1     0     0   501   502  0.000000000E+00  0.000000000E+00 -6.583860218E+02  6.583860218E+02  0.000000000E+00  0.00000E+00  9.000E+00
      25     1     1     2     0     0  7.533459865E+00 -1.086513558E+02 -3.548182293E+02  3.916412210E+02  1.250000000E+02  0.00000E+00  9.000E+00
      25     1     1     2     0     0 -4.391038206E+00  1.434221030E+02 -2.264320491E+02  2.957797385E+02  1.250000000E+02  0.00000E+00  9.000E+00
      21     1     1     2   501   511 -3.142421659E+00 -3.477074721E+01 -1.138034818E+01  3.672045752E+01  8.429369702E-07  0.00000E+00  9.000E+00
#rwgt            1           1   4.8349841163908204E-002          26      227053           0
</event>
<event>
      5   9999  3.70600E-02  6.22090E+01 -1.00000E+00  1.33868E-01
      21    -1     0     0   512   501  0.000000000E+00  0.000000000E+00  2.025495154E+02  2.025495154E+02  0.000000000E+00  0.00000E+00  9.000E+00
      21    -1     0     0   501   502  0.000000000E+00  0.000000000E+00 -2.297017324E+02  2.297017324E+02  0.000000000E+00  0.00000E+00  9.000E+00
      25     1     1     2     0     0  2.447553526E+00  7.112423250E+01  1.073889064E+02  1.795049419E+02  1.250000000E+02  0.00000E+00  9.000E+00
      25     1     1     2     0     0  4.009769238E+01 -2.573853934E+01 -1.356661102E+02  1.905271393E+02  1.250000000E+02  0.00000E+00  9.000E+00
      21     1     1     2   512   502 -4.254524591E+01 -4.538569317E+01  1.124986919E+00  6.221916657E+01  9.052991974E-07  0.00000E+00  9.000E+00
#rwgt            1           1   2.6691272529228042E-002          26      227586           0
</event>
<event>
      5   9999  3.70600E-02  4.15140E+01 -1.00000E+00  1.43844E-01
      21    -1     0     0   502   511  0.000000000E+00  0.000000000E+00  3.848249737E+01  3.848249737E+01  0.000000000E+00  0.00000E+00  9.000E+00
      21    -1     0     0   501   502  0.000000000E+00  0.000000000E+00 -2.349839548E+03  2.349839548E+03  0.000000000E+00  0.00000E+00  9.000E+00
      25     1     1     2     0     0 -2.130001084E+02  1.494646040E+02 -1.264508136E+03  1.297040685E+03  1.250000000E+02  0.00000E+00  9.000E+00
      25     1     1     2     0     0  1.739035722E+02 -1.355048866E+02 -9.828353562E+02  1.014984908E+03  1.250000000E+02  0.00000E+00  9.000E+00
      21     1     1     2   501   511  3.909653624E+01 -1.395971740E+01 -6.401355890E+01  7.629645194E+01  1.348699152E-06  0.00000E+00  9.000E+00
#rwgt            1           1   9.5534384148046048E-002          26      227684           0
</event>
<event>
      5   9999  3.70600E-02  4.06436E+01 -1.00000E+00  1.44409E-01
      21    -1     0     0   512   501  0.000000000E+00  0.000000000E+00  4.614390577E+02  4.614390577E+02  0.000000000E+00  0.00000E+00  9.000E+00
      21    -1     0     0   501   502  0.000000000E+00  0.000000000E+00 -1.469318203E+02  1.469318203E+02  0.000000000E+00  0.00000E+00  9.000E+00
      25     1     1     2     0     0  1.409762042E+02  4.487575675E+01 -3.465679653E+01  1.967592876E+02  1.250000000E+02  0.00000E+00  9.000E+00
      25     1     1     2     0     0 -1.182580206E+02 -1.117430590E+01  2.432764313E+02  2.981916273E+02  1.250000000E+02  0.00000E+00  9.000E+00
      21     1     1     2   512   502 -2.271818367E+01 -3.370145085E+01  1.058876026E+02  1.134199631E+02  0.000000000E+00  0.00000E+00  9.000E+00
#rwgt            1           1   4.0280276774892668E-002          26      227905           0
</event>
<event>
      5   9999  3.70600E-02  4.65841E+01 -1.00000E+00  1.40850E-01
      21    -1     0     0   502   511  0.000000000E+00  0.000000000E+00  1.735730940E+02  1.735730940E+02  0.000000000E+00  0.00000E+00  9.000E+00
      21    -1     0     0   501   502  0.000000000E+00  0.000000000E+00 -1.209524613E+03  1.209524613E+03  0.000000000E+00  0.00000E+00  9.000E+00
      25     1     1     2     0     0 -4.503504670E+01  5.730285042E+01 -1.684542745E+02  2.220666898E+02  1.250000000E+02  0.00000E+00  9.000E+00
      25     1     1     2     0     0  9.102163344E+01 -6.474035829E+01 -1.003430708E+03  1.017336934E+03  1.250000000E+02  0.00000E+00  9.000E+00
      21     1     1     2   501   511 -4.598658674E+01  7.437507868E+00  1.359334641E+02  1.436940825E+02  1.907348633E-06  0.00000E+00  9.000E+00
#rwgt            1           1   4.3940847297566900E-002          26      228255           0
</event>
<event>
      5   9999  3.70600E-02  3.36329E+01 -1.00000E+00  1.49667E-01
      21    -1     0     0   502   501  0.000000000E+00  0.000000000E+00  5.073156693E+02  5.073156693E+02  0.000000000E+00  0.00000E+00  9.000E+00
      21    -1     0     0   501   512  0.000000000E+00  0.000000000E+00 -1.016503230E+03  1.016503230E+03  0.000000000E+00  0.00000E+00  9.000E+00
      25     1     1     2     0     0 -1.128359970E+02 -1.464458787E+02  3.164189995E+02  3.872006468E+02  1.250000000E+02  0.00000E+00  9.000E+00
      25     1     1     2     0     0  1.459198627E+02  1.524980566E+02  5.824868719E+01  2.521233292E+02  1.250000000E+02  0.00000E+00  9.000E+00
      21     1     1     2   502   512 -3.308386568E+01 -6.052177868E+00 -8.838552472E+02  8.844949231E+02  1.868812365E-05  0.00000E+00  9.000E+00
#rwgt            1           1   4.6850255961413741E-002          26      228452           0
</event>
<event>
      5   9999  3.70600E-02  4.10814E+01 -1.00000E+00  1.44123E-01
      21    -1     0     0   502   501  0.000000000E+00  0.000000000E+00  1.239476384E+02  1.239476384E+02  0.000000000E+00  0.00000E+00  9.000E+00
      21    -1     0     0   511   502  0.000000000E+00  0.000000000E+00 -1.267852941E+03  1.267852941E+03  0.000000000E+00  0.00000E+00  9.000E+00
      25     1     1     2     0     0 -2.561946292E+02  5.116669820E+01 -2.560514204E+02  3.865760584E+02  1.250000000E+02  0.00000E+00  9.000E+00
      25     1     1     2     0     0  2.433558470E+02 -1.214301784E+01 -2.651967590E+02  3.812136437E+02  1.250000000E+02  0.00000E+00  9.000E+00
      21     1     1     2   511   501  1.283878219E+01 -3.902368037E+01 -6.226571227E+02  6.240108769E+02  0.000000000E+00  0.00000E+00  9.000E+00
#rwgt            1           1   3.8543474358664447E-002          26      228689           0
</event>
<event>
      5   9999  3.70600E-02  3.01828E+01 -1.00000E+00  1.52854E-01
      21    -1     0     0   512   501  0.000000000E+00  0.000000000E+00  4.334439247E+02  4.334439247E+02  0.000000000E+00  0.00000E+00  9.000E+00
      21    -1     0     0   501   502  0.000000000E+00  0.000000000E+00 -2.387112424E+02  2.387112424E+02  0.000000000E+00  0.00000E+00  9.000E+00
      25     1     1     2     0     0 -2.508888212E+01  2.133210129E+01  3.589520712E+02  3.815181515E+02  1.250000000E+02  0.00000E+00  9.000E+00
      25     1     1     2     0     0  5.447091271E+01 -2.823832596E+01 -2.000798703E+02  2.437651285E+02  1.250000000E+02  0.00000E+00  9.000E+00
      21     1     1     2   512   502 -2.938203059E+01  6.906224674E+00  3.586048144E+01  4.687188699E+01  4.768371582E-07  0.00000E+00  9.000E+00
#rwgt            1           1   3.8268920779686987E-002          26      229089           0
</event>
<event>
      5   9999  3.70600E-02  1.34909E+02 -1.00000E+00  1.18247E-01
       2    -1     0     0   502     0  0.000000000E+00  0.000000000E+00  2.087725282E+02  2.087725282E+02  0.000000000E+00  0.00000E+00  9.000E+00
      21    -1     0     0   501   502  0.000000000E+00  0.000000000E+00 -4.456333477E+02  4.456333477E+02  0.000000000E+00  0.00000E+00  9.000E+00
      25     1     1     2     0     0  2.046896057E+02  6.141150901E+00 -1.915424411E+02  3.070000899E+02  1.250000000E+02  0.00000E+00  9.000E+00
      25     1     1     2     0     0 -7.941870532E+01  4.393628708E+01 -1.177922349E+02  1.942620361E+02  1.250000000E+02  0.00000E+00  9.000E+00
       2     1     1     2   501     0 -1.252709004E+02 -5.007743798E+01  7.247385651E+01  1.531437500E+02  9.536743164E-07  0.00000E+00  9.000E+00
#rwgt            1           1   2.4569967348526893E-002          26      229665           0
</event>
<event>
      5   9999  3.70600E-02  3.70100E+01 -1.00000E+00  1.46962E-01
      21    -1     0     0   502   501  0.000000000E+00  0.000000000E+00  1.103060107E+02  1.103060107E+02  0.000000000E+00  0.00000E+00  9.000E+00
      21    -1     0     0   511   502  0.000000000E+00  0.000000000E+00 -4.519091732E+02  4.519091732E+02  0.000000000E+00  0.00000E+00  9.000E+00
      25     1     1     2     0     0  1.040432614E+01  4.766008068E+01  3.489276754E+01  1.386442877E+02  1.250000000E+02  0.00000E+00  9.000E+00
      25     1     1     2     0     0 -4.654140239E+01 -5.565083140E+01 -3.481373563E+02  3.769452693E+02  1.250000000E+02  0.00000E+00  9.000E+00
      21     1     1     2   511   501  3.613707625E+01  7.990750719E+00 -2.835857370E+01  4.662562685E+01  6.743495762E-07  0.00000E+00  9.000E+00
#rwgt            1           1   4.0952171741170156E-002          26      229781           0
</event>
<event>
      5   9999  3.70600E-02  2.95288E+01 -1.00000E+00  1.53516E-01
      21    -1     0     0   502   501  0.000000000E+00  0.000000000E+00  1.126536540E+03  1.126536540E+03  0.000000000E+00  0.00000E+00  9.000E+00
      -2    -1     0     0     0   502  0.000000000E+00  0.000000000E+00 -8.886841616E+01  8.886841616E+01  0.000000000E+00  0.00000E+00  9.000E+00
      25     1     1     2     0     0  8.088327250E+01  7.652965894E+01  9.699176090E+02  9.842581271E+02  1.250000000E+02  0.00000E+00  9.000E+00
      25     1     1     2     0     0 -5.350826579E+01 -6.545911458E+01  1.048304882E+02  1.837456433E+02  1.250000000E+02  0.00000E+00  9.000E+00
      -2     1     1     2     0   501 -2.737500671E+01 -1.107054436E+01 -3.707997359E+01  4.740118549E+01  1.430511475E-06  0.00000E+00  9.000E+00
#rwgt            1           1   4.5941548775982319E-002          26      230366           0
</event>
<event>
      5   9999 -3.70600E-02  2.91511E+01 -1.00000E+00  1.53908E-01
      21    -1     0     0   502   501  0.000000000E+00  0.000000000E+00  8.707999210E+01  8.707999210E+01  0.000000000E+00  0.00000E+00  9.000E+00
      21    -1     0     0   501   511  0.000000000E+00  0.000000000E+00 -5.037064237E+02  5.037064237E+02  0.000000000E+00  0.00000E+00  9.000E+00
      25     1     1     2     0     0 -1.246762560E+02 -8.290032153E+01 -2.121566268E+02  2.881875542E+02  1.250000000E+02  0.00000E+00  9.000E+00
      25     1     1     2     0     0  9.553508744E+01  8.366208949E+01 -1.242078854E+02  2.172070371E+02  1.250000000E+02  0.00000E+00  9.000E+00
      21     1     1     2   502   511  2.914116855E+01 -7.617679580E-01 -8.026191936E+01  8.539182451E+01  1.348699152E-06  0.00000E+00  9.000E+00
#rwgt            1           1  -3.8150169301048052E-002          26      231033           0
</event>
<event>
      5   9999  3.70600E-02  6.49268E+01 -1.00000E+00  1.32895E-01
      21    -1     0     0   502   512  0.000000000E+00  0.000000000E+00  7.597400380E+01  7.597400380E+01  0.000000000E+00  0.00000E+00  9.000E+00
      21    -1     0     0   501   502  0.000000000E+00  0.000000000E+00 -1.327583730E+03  1.327583730E+03  0.000000000E+00  0.00000E+00  9.000E+00
      25     1     1     2     0     0  8.270008055E+01 -3.836345952E+00 -4.000709297E+01  1.551759916E+02  1.250000000E+02  0.00000E+00  9.000E+00
      25     1     1     2     0     0 -3.798948844E+01 -4.324291038E+01 -1.152173706E+03  1.160363047E+03  1.250000000E+02  0.00000E+00  9.000E+00
      21     1     1     2   501   512 -4.471059211E+01  4.707925633E+01 -5.942892706E+01  8.801869571E+01  6.743495762E-07  0.00000E+00  9.000E+00
#rwgt            1           1   4.9554885404440495E-002          26      231516           0
</event>
<event>
      5   9999  3.70600E-02  4.53323E+01 -1.00000E+00  1.41546E-01
      21    -1     0     0   511   501  0.000000000E+00  0.000000000E+00  3.455739447E+02  3.455739447E+02  0.000000000E+00  0.00000E+00  9.000E+00
      21    -1     0     0   501   502  0.000000000E+00  0.000000000E+00 -1.440501334E+02  1.440501334E+02  0.000000000E+00  0.00000E+00  9.000E+00
      25     1     1     2     0     0 -1.029188028E+02  1.203254694E+02  1.602250565E+02  2.576190352E+02  1.250000000E+02  0.00000E+00  9.000E+00
      25     1     1     2     0     0  6.656890091E+01 -9.323845530E+01 -1.639040809E+00  1.695656645E+02  1.250000000E+02  0.00000E+00  9.000E+00
      21     1     1     2   511   502  3.634990187E+01 -2.708701408E+01  4.293779556E+01  6.243937849E+01  1.168007728E-06  0.00000E+00  9.000E+00
#rwgt            1           1  0.11255773277955217               26      231863           0
</event>
<event>
      5   9999  3.70600E-02  1.35353E+01 -1.00000E+00  1.81689E-01
      21    -1     0     0   502   512  0.000000000E+00  0.000000000E+00  3.276206654E+02  3.276206654E+02  0.000000000E+00  0.00000E+00  9.000E+00
      21    -1     0     0   501   502  0.000000000E+00  0.000000000E+00 -1.881444039E+02  1.881444039E+02  0.000000000E+00  0.00000E+00  9.000E+00
      25     1     1     2     0     0  2.497350253E+00  7.420971897E+01 -1.096939091E+02  1.821292751E+02  1.250000000E+02  0.00000E+00  9.000E+00
      25     1     1     2     0     0  7.325374684E+00 -6.489743867E+01  7.651737903E+01  1.604532578E+02  1.250000000E+02  0.00000E+00  9.000E+00
      21     1     1     2   501   512 -9.822724937E+00 -9.312280300E+00  1.726527915E+02  1.731825364E+02  3.303624740E-06  0.00000E+00  9.000E+00
#rwgt            1           1   2.1830876532214903E-002          26      232831           0
</event>
<event>
      5   9999  3.70600E-02  4.58499E+01 -1.00000E+00  1.41255E-01
      21    -1     0     0   502   511  0.000000000E+00  0.000000000E+00  6.800159252E+02  6.800159252E+02  0.000000000E+00  0.00000E+00  9.000E+00
      21    -1     0     0   501   502  0.000000000E+00  0.000000000E+00 -1.165661032E+02  1.165661032E+02  0.000000000E+00  0.00000E+00  9.000E+00
      25     1     1     2     0     0  8.145134430E+01  1.764369106E+02  2.694144849E+02  3.549274146E+02  1.250000000E+02  0.00000E+00  9.000E+00
      25     1     1     2     0     0 -1.119618356E+02 -2.106614867E+02  1.949704683E+02  3.324939069E+02  1.250000000E+02  0.00000E+00  9.000E+00
      21     1     1     2   501   511  3.051049133E+01  3.422457616E+01  9.906486882E+01  1.091607069E+02  1.348699152E-06  0.00000E+00  9.000E+00
#rwgt            1           1   5.2774685682506033E-002          26      233568           0
</event>
<event>
      5   9999  3.70600E-02  4.12684E+01 -1.00000E+00  1.44002E-01
      21    -1     0     0   502   512  0.000000000E+00  0.000000000E+00  2.401718040E+03  2.401718040E+03  0.000000000E+00  0.00000E+00  9.000E+00
      21    -1     0     0   501   502  0.000000000E+00  0.000000000E+00 -7.490658658E+01  7.490658658E+01  0.000000000E+00  0.00000E+00  9.000E+00
      25     1     1     2     0     0 -1.252769015E+02 -1.427515807E+02  5.499615211E+02  5.951092257E+02  1.250000000E+02  0.00000E+00  9.000E+00
      25     1     1     2     0     0  1.555489975E+02  1.147037203E+02  2.023317210E+02  3.064564559E+02  1.250000000E+02  0.00000E+00  9.000E+00
      21     1     1     2   501   512 -3.027209591E+01  2.804786042E+01  1.574518212E+03  1.575058945E+03  3.051757812E-05  0.00000E+00  9.000E+00
#rwgt            1           1   3.4370944584532416E-002          26      233791           0
</event>
<event>
      5   9999  3.70600E-02  4.88036E+01 -1.00000E+00  1.39676E-01
      -2    -1     0     0     0   501  0.000000000E+00  0.000000000E+00  1.364792526E+02  1.364792526E+02  0.000000000E+00  0.00000E+00  9.000E+00
      21    -1     0     0   501   502  0.000000000E+00  0.000000000E+00 -2.991604116E+02  2.991604116E+02  0.000000000E+00  0.00000E+00  9.000E+00
      25     1     1     2     0     0 -8.553964269E+01  9.360078496E+01 -1.278176662E+02  2.191814162E+02  1.250000000E+02  0.00000E+00  9.000E+00
      25     1     1     2     0     0  3.679646936E+01 -9.117341283E+01 -4.734516507E+00  1.591036989E+02  1.250000000E+02  0.00000E+00  9.000E+00
      -2     1     1     2     0   502  4.874317333E+01 -2.427372122E+00 -3.012897635E+01  5.735454906E+01  6.743495762E-07  0.00000E+00  9.000E+00
#rwgt            1           1   4.7415019549016203E-002          26      234044           0
</event>
<event>
      5   9999 -3.70600E-02  7.94819E+01 -1.00000E+00  1.28484E-01
      21    -1     0     0   511   501  0.000000000E+00  0.000000000E+00  8.561558082E+02  8.561558082E+02  0.000000000E+00  0.00000E+00  9.000E+00
      21    -1     0     0   501   502  0.000000000E+00  0.000000000E+00 -3.161209898E+02  3.161209898E+02  0.000000000E+00  0.00000E+00  9.000E+00
      25     1     1     2     0     0 -5.347466295E+01 -8.179766381E+01 -1.043950868E+02  1.899308598E+02  1.250000000E+02  0.00000E+00  9.000E+00
      25     1     1     2     0     0  1.021959453E+02  1.445958403E+02 -9.643689801E+01  2.372278305E+02  1.250000000E+02  0.00000E+00  9.000E+00
      21     1     1     2   511   502 -4.872128236E+01 -6.279817644E+01  7.408668032E+02  7.451181077E+02  0.000000000E+00  0.00000E+00  9.000E+00
#rwgt            1           1  -3.4124288142057493E-002          26      234485           0
</event>
<event>
      5   9999  3.70600E-02  2.33028E+01 -1.00000E+00  1.61069E-01
      21    -1     0     0   502   512  0.000000000E+00  0.000000000E+00  9.497153930E+01  9.497153930E+01  0.000000000E+00  0.00000E+00  9.000E+00
      21    -1     0     0   501   502  0.000000000E+00  0.000000000E+00 -4.573559531E+02  4.573559531E+02  0.000000000E+00  0.00000E+00  9.000E+00
      25     1     1     2     0     0  8.578907464E+01 -5.150846434E+01 -2.749569218E+02  3.181810743E+02  1.250000000E+02  0.00000E+00  9.000E+00
      25     1     1     2     0     0 -9.034383095E+01  2.865515181E+01 -1.175763592E+02  1.960416429E+02  1.250000000E+02  0.00000E+00  9.000E+00
      21     1     1     2   501   512  4.554756309E+00  2.285331254E+01  3.014886716E+01  3.810477516E+01  8.259061849E-07  0.00000E+00  9.000E+00
#rwgt            2          11   5.6848434626726612E-004          26      234606           0
</event>
<event>
      5   9999  3.70600E-02  1.94636E+01 -1.00000E+00  1.67346E-01
      21    -1     0     0   502   501  0.000000000E+00  0.000000000E+00  1.062713591E+02  1.062713591E+02  0.000000000E+00  0.00000E+00  9.000E+00
      21    -1     0     0   511   502  0.000000000E+00  0.000000000E+00 -4.460671815E+02  4.460671815E+02  0.000000000E+00  0.00000E+00  9.000E+00
      25     1     1     2     0     0  5.269239973E+01  3.777052082E+01 -3.363584354E+02  3.646437965E+02  1.250000000E+02  0.00000E+00  9.000E+00
      25     1     1     2     0     0 -7.192484726E+01 -4.076131515E+01  2.629831734E+01  1.521554138E+02  1.250000000E+02  0.00000E+00  9.000E+00
      21     1     1     2   511   501  1.923244753E+01  2.990794327E+00 -2.973570432E+01  3.553933032E+01  3.371747881E-07  0.00000E+00  9.000E+00
#rwgt            1           1   3.7987604219477340E-002          26      235586           0
</event>
<event>
      5   9999  3.70600E-02  3.17350E+01 -1.00000E+00  1.51360E-01
      21    -1     0     0   512   501  0.000000000E+00  0.000000000E+00  3.815577317E+02  3.815577317E+02  0.000000000E+00  0.00000E+00  9.000E+00
      21    -1     0     0   501   502  0.000000000E+00  0.000000000E+00 -9.718556589E+01  9.718556589E+01  0.000000000E+00  0.00000E+00  9.000E+00
      25     1     1     2     0     0  2.055449861E+01 -4.298425452E+01  1.574121933E+02  2.065762139E+02  1.250000000E+02  0.00000E+00  9.000E+00
      25     1     1     2     0     0  1.009849552E+00  1.970141704E+01 -1.433102537E+01  1.273559732E+02  1.250000000E+02  0.00000E+00  9.000E+00
      21     1     1     2   512   502 -2.156434816E+01  2.328283748E+01  1.412909978E+02  1.448111104E+02  2.697398305E-06  0.00000E+00  9.000E+00
#rwgt            1           1  0.13582030870498360               26      236236           0
</event>
<event>
      5   9999 -3.70600E-02  9.32732E+01 -1.00000E+00  1.25202E-01
      21    -1     0     0   511   501  0.000000000E+00  0.000000000E+00  3.404627861E+02  3.404627861E+02  0.000000000E+00  0.00000E+00  9.000E+00
      21    -1     0     0   501   502  0.000000000E+00  0.000000000E+00 -4.496701614E+02  4.496701614E+02  0.000000000E+00  0.00000E+00  9.000E+00
      25     1     1     2     0     0  1.930873620E+02 -5.571374435E+01 -2.993962904E+01  2.385542539E+02  1.250000000E+02  0.00000E+00  9.000E+00
      25     1     1     2     0     0 -1.829227003E+02  1.484313965E+02 -2.445257311E+02  3.618154597E+02  1.250000000E+02  0.00000E+00  9.000E+00
      21     1     1     2   511   502 -1.016466172E+01 -9.271765218E+01  1.652579849E+02  1.897632339E+02  1.907348633E-06  0.00000E+00  9.000E+00
#rwgt            1           1  -1.9771824874609951E-002          26      236448           0
</event>
<event>
      5   9999  3.70600E-02  8.37614E+00 -1.00000E+00  2.05090E-01
      21    -1     0     0   502   501  0.000000000E+00  0.000000000E+00  5.057155687E+02  5.057155687E+02  0.000000000E+00  0.00000E+00  9.000E+00
      -1    -1     0     0     0   502  0.000000000E+00  0.000000000E+00 -2.797637982E+02  2.797637982E+02  0.000000000E+00  0.00000E+00  9.000E+00
      25     1     1     2     0     0  4.958776860E+01 -1.462250586E+02  6.767834873E+01  2.098715642E+02  1.250000000E+02  0.00000E+00  9.000E+00
      25     1     1     2     0     0 -4.242281120E+01  1.418865059E+02  3.412505506E+02  3.924390573E+02  1.250000000E+02  0.00000E+00  9.000E+00
      -1     1     1     2     0   501 -7.164957400E+00  4.338552732E+00 -1.829771288E+02  1.831687454E+02  3.814697266E-06  0.00000E+00  9.000E+00
#rwgt            1           1   3.5337862918097318E-002          26      236603           0
</event>
<event>
      5   9999  3.70600E-02  1.08736E+01 -1.00000E+00  1.91640E-01
      21    -1     0     0   511   501  0.000000000E+00  0.000000000E+00  6.223585836E+02  6.223585836E+02  0.000000000E+00  0.00000E+00  9.000E+00
      21    -1     0     0   501   502  0.000000000E+00  0.000000000E+00 -1.284491158E+02  1.284491158E+02  0.000000000E+00  0.00000E+00  9.000E+00
      25     1     1     2     0     0 -3.838525046E+01 -2.057093773E+02  4.045539177E+02  4.723120236E+02  1.250000000E+02  0.00000E+00  9.000E+00
      25     1     1     2     0     0  3.322550525E+01  2.152808406E+02  7.849626285E+01  2.631281775E+02  1.250000000E+02  0.00000E+00  9.000E+00
      21     1     1     2   511   502  5.159745206E+00 -9.571463354E+00  1.085928720E+01  1.536749816E+01  2.064765462E-07  0.00000E+00  9.000E+00
#rwgt            1           1   3.2536174752736735E-002          26      237330           0
</event>
<event>
      5   9999  3.70600E-02  3.80586E+01 -1.00000E+00  1.46191E-01
      21    -1     0     0   502   501  0.000000000E+00  0.000000000E+00  2.074638349E+02  2.074638349E+02  0.000000000E+00  0.00000E+00  9.000E+00
      21    -1     0     0   501   512  0.000000000E+00  0.000000000E+00 -2.541400223E+02  2.541400223E+02  0.000000000E+00  0.00000E+00  9.000E+00
      25     1     1     2     0     0  1.052125104E+01  1.164518633E+02 -1.161815125E+02  2.068692269E+02  1.250000000E+02  0.00000E+00  9.000E+00
      25     1     1     2     0     0 -3.776796947E+01 -1.430238886E+02  8.764187756E+01  2.125755182E+02  1.250000000E+02  0.00000E+00  9.000E+00
      21     1     1     2   502   512  2.724671843E+01  2.657202535E+01 -1.813655250E+01  4.215911210E+01  4.768371582E-07  0.00000E+00  9.000E+00
#rwgt            1           1   2.8847785813811647E-002          26      237967           0
</event>
<event>
      5   9999  3.70600E-02  3.92892E+01 -1.00000E+00  1.45322E-01
      21    -1     0     0   502   501  0.000000000E+00  0.000000000E+00  2.375617814E+03  2.375617814E+03  0.000000000E+00  0.00000E+00  9.000E+00
      21    -1     0     0   501   511  0.000000000E+00  0.000000000E+00 -9.597750002E+01  9.597750002E+01  0.000000000E+00  0.00000E+00  9.000E+00
      25     1     1     2     0     0  2.772678235E+01 -4.173419273E+01  1.980907402E+03  1.985479704E+03  1.250000000E+02  0.00000E+00  9.000E+00
      25     1     1     2     0     0 -6.615153770E+01  4.993055393E+01  3.730400560E+02  4.020609028E+02  1.250000000E+02  0.00000E+00  9.000E+00
      21     1     1     2   502   511  3.842475535E+01 -8.196361201E+00 -7.430714434E+01  8.405470754E+01  4.573661350E-06  0.00000E+00  9.000E+00
#rwgt            1           1   7.6382200029307498E-002          26      238145           0
</event>
<event>
      5   9999  3.70600E-02  4.39792E+01 -1.00000E+00  1.42329E-01
      21    -1     0     0   502   501  0.000000000E+00  0.000000000E+00  1.863234071E+02  1.863234071E+02  0.000000000E+00  0.00000E+00  9.000E+00
       2    -1     0     0   501     0  0.000000000E+00  0.000000000E+00 -1.989901998E+03  1.989901998E+03  0.000000000E+00  0.00000E+00  9.000E+00
      25     1     1     2     0     0 -4.045354421E+01 -1.238164032E+02  4.423970028E+01  1.858739950E+02  1.250000000E+02  0.00000E+00  9.000E+00
      25     1     1     2     0     0  1.285648854E+01  1.580592298E+02 -7.258440614E+01  2.145728442E+02  1.250000000E+02  0.00000E+00  9.000E+00
       2     1     1     2   502     0  2.759705568E+01 -3.424282665E+01 -1.775233885E+03  1.775778566E+03  2.157918644E-05  0.00000E+00  9.000E+00
#rwgt            1           1   4.6472095659299308E-002          26      238319           0
</event>
<event>
      5   9999  3.70600E-02  1.50250E+01 -1.00000E+00  1.77312E-01
      21    -1     0     0   502   501  0.000000000E+00  0.000000000E+00  4.133916073E+02  4.133916073E+02  0.000000000E+00  0.00000E+00  9.000E+00
      21    -1     0     0   511   502  0.000000000E+00  0.000000000E+00 -1.248756854E+02  1.248756854E+02  0.000000000E+00  0.00000E+00  9.000E+00
      25     1     1     2     0     0  4.704248678E+01  8.829735860E+01  3.180764422E+02  3.560997644E+02  1.250000000E+02  0.00000E+00  9.000E+00
      25     1     1     2     0     0 -6.187438264E+01 -8.589616858E+01 -3.212855765E+01  1.669246393E+02  1.250000000E+02  0.00000E+00  9.000E+00
      21     1     1     2   511   501  1.483189586E+01 -2.401190024E+00  2.568037321E+00  1.524288896E+01  2.043144286E-07  0.00000E+00  9.000E+00
#rwgt            1           1   4.1624719166626259E-002          26      238481           0
</event>
<event>
      5   9999  3.70600E-02  2.55889E+01 -1.00000E+00  1.57994E-01
      21    -1     0     0   502   501  0.000000000E+00  0.000000000E+00  1.178056145E+02  1.178056145E+02  0.000000000E+00  0.00000E+00  9.000E+00
      21    -1     0     0   512   502  0.000000000E+00  0.000000000E+00 -3.523011655E+02  3.523011655E+02  0.000000000E+00  0.00000E+00  9.000E+00
      25     1     1     2     0     0  1.898136622E+01 -9.721366947E+01  3.972898701E+00  1.595354936E+02  1.250000000E+02  0.00000E+00  9.000E+00
      25     1     1     2     0     0 -3.989079879E+01  1.119644629E+02 -1.969890684E+02  2.618339356E+02  1.250000000E+02  0.00000E+00  9.000E+00
      21     1     1     2   512   501  2.090943257E+01 -1.475079344E+01 -4.147938138E+01  4.873735074E+01  4.768371582E-07  0.00000E+00  9.000E+00
#rwgt            1           1   4.7832448470815268E-002          26      239206           0
</event>
<event>
      5   9999  3.70600E-02  7.43713E+01 -1.00000E+00  1.29900E-01
      21    -1     0     0   502   501  0.000000000E+00  0.000000000E+00  5.566343335E+02  5.566343335E+02  0.000000000E+00  0.00000E+00  9.000E+00
      21    -1     0     0   511   502  0.000000000E+00  0.000000000E+00 -1.313939862E+02  1.313939862E+02  0.000000000E+00  0.00000E+00  9.000E+00
      25     1     1     2     0     0 -9.138214317E+01  1.344431251E+02  2.757514420E+02  3.436415396E+02  1.250000000E+02  0.00000E+00  9.000E+00
      25     1     1     2     0     0  1.169459660E+02 -6.460340088E+01  1.865467516E+02  2.612941807E+02  1.250000000E+02  0.00000E+00  9.000E+00
      21     1     1     2   511   501 -2.556382282E+01 -6.983972419E+01 -3.705784615E+01  8.309259939E+01  1.507891493E-06  0.00000E+00  9.000E+00
#rwgt            2          11   1.8634286394197880E-003          26      239445           0
</event>
<event>
      5   9999  3.70600E-02  2.14580E+02 -1.00000E+00  1.10545E-01
      21    -1     0     0   502   512  0.000000000E+00  0.000000000E+00  5.454272626E+02  5.454272626E+02  0.000000000E+00  0.00000E+00  9.000E+00
      21    -1     0     0   501   502  0.000000000E+00  0.000000000E+00 -4.600126240E+02  4.600126240E+02  0.000000000E+00  0.00000E+00  9.000E+00
      25     1     1     2     0     0 -1.277913026E+02 -7.861872095E+01 -3.436901553E+02  3.952966521E+02  1.250000000E+02  0.00000E+00  9.000E+00
      25     1     1     2     0     0 -3.917014512E+01 -5.617124774E+01  1.445370946E+01  1.432599702E+02  1.250000000E+02  0.00000E+00  9.000E+00
      21     1     1     2   501   512  1.669614478E+02  1.347899687E+02  4.146510844E+02  4.668832643E+02  7.629394531E-06  0.00000E+00  9.000E+00
#rwgt            2          11   2.8860362501418094E-003          26      239465           0
</event>
<event>
      5   9999  3.70600E-02  3.99539E+01 -1.00000E+00  1.44869E-01
       2    -1     0     0   502     0  0.000000000E+00  0.000000000E+00  9.782150120E+02  9.782150120E+02  0.000000000E+00  0.00000E+00  9.000E+00
      21    -1     0     0   501   502  0.000000000E+00  0.000000000E+00 -1.278934101E+03  1.278934101E+03  0.000000000E+00  0.00000E+00  9.000E+00
      25     1     1     2     0     0  1.429391563E+02 -9.186095854E+01 -2.806355803E+02  3.510717406E+02  1.250000000E+02  0.00000E+00  9.000E+00
      25     1     1     2     0     0 -1.539521171E+02  5.345484154E+01 -9.516971984E+02  9.736073294E+02  1.250000000E+02  0.00000E+00  9.000E+00
       2     1     1     2   501     0  1.101296077E+01  3.840611700E+01  9.316136895E+02  9.324700433E+02  0.000000000E+00  0.00000E+00  9.000E+00
#rwgt            1           1   4.3498917100458258E-002          26      239860           0
</event>
<event>
      5   9999  3.70600E-02  3.56092E+01 -1.00000E+00  1.48041E-01
       4    -1     0     0   502     0  0.000000000E+00  0.000000000E+00  3.887122784E+02  3.887122784E+02  0.000000000E+00  0.00000E+00  9.000E+00
      21    -1     0     0   501   502  0.000000000E+00  0.000000000E+00 -8.997501726E+02  8.997501726E+02  0.000000000E+00  0.00000E+00  9.000E+00
      25     1     1     2     0     0 -1.903535237E+01  3.712944336E+01 -7.588254210E+01  1.520661054E+02  1.250000000E+02  0.00000E+00  9.000E+00
      25     1     1     2     0     0  5.235750800E+01 -2.457352071E+01 -7.788133065E+02  7.908984340E+02  1.250000000E+02  0.00000E+00  9.000E+00
       4     1     1     2   501     0 -3.332215563E+01 -1.255592265E+01  3.436579545E+02  3.454979116E+02  5.394796609E-06  0.00000E+00  9.000E+00
#rwgt            1           1   3.7248245458452338E-002          26      240868           0
</event>
<event>
      5   9999 -3.70600E-02  7.04628E+01 -1.00000E+00  1.31074E-01
      21    -1     0     0   502   501  0.000000000E+00  0.000000000E+00  1.179448649E+02  1.179448649E+02  0.000000000E+00  0.00000E+00  9.000E+00
       1    -1     0     0   501     0  0.000000000E+00  0.000000000E+00 -5.953441195E+02  5.953441195E+02  0.000000000E+00  0.00000E+00  9.000E+00
      25     1     1     2     0     0  1.977302777E+02 -6.765082343E+01 -3.348584677E+02  4.140399619E+02  1.250000000E+02  0.00000E+00  9.000E+00
      25     1     1     2     0     0 -1.273330939E+02  7.069116226E+01 -9.419843530E+01  2.137973397E+02  1.250000000E+02  0.00000E+00  9.000E+00
       1     1     1     2   502     0 -7.039718380E+01 -3.040338837E+00 -4.834235154E+01  8.545168284E+01  1.168007728E-06  0.00000E+00  9.000E+00
#rwgt            1           1  -1.8825835873506693E-002          26      241179           0
</event>
<event>
      5   9999  3.70600E-02  2.37214E+01 -1.00000E+00  1.60475E-01
      21    -1     0     0   502   501  0.000000000E+00  0.000000000E+00  4.810615478E+02  4.810615478E+02  0.000000000E+00  0.00000E+00  9.000E+00
       2    -1     0     0   501     0  0.000000000E+00  0.000000000E+00 -1.604685902E+03  1.604685902E+03  0.000000000E+00  0.00000E+00  9.000E+00
      25     1     1     2     0     0  2.189170562E+01 -1.220437130E+01  1.413718987E+01  1.282694570E+02  1.250000000E+02  0.00000E+00  9.000E+00
      25     1     1     2     0     0 -4.259168591E+01  6.191828287E-01  3.991268403E+02  4.204065529E+02  1.250000000E+02  0.00000E+00  9.000E+00
       2     1     1     2   502     0  2.069998030E+01  1.158518847E+01 -1.536888385E+03  1.537071440E+03  2.157918644E-05  0.00000E+00  9.000E+00
#rwgt            1           1   2.8826007492432693E-002          26      242198           0
</event>
<event>
      5   9999  3.70600E-02  8.21692E+01 -1.00000E+00  1.27788E-01
      21    -1     0     0   502   511  0.000000000E+00  0.000000000E+00  6.681282541E+02  6.681282541E+02  0.000000000E+00  0.00000E+00  9.000E+00
      21    -1     0     0   501   502  0.000000000E+00  0.000000000E+00 -1.427796004E+02  1.427796004E+02  0.000000000E+00  0.00000E+00  9.000E+00
      25     1     1     2     0     0 -6.912937953E+01  1.980227635E+02  9.545771450E+01  2.621622803E+02  1.250000000E+02  0.00000E+00  9.000E+00
      25     1     1     2     0     0  7.929337968E+01 -1.164845668E+02  1.092718354E+02  2.177646169E+02  1.250000000E+02  0.00000E+00  9.000E+00
      21     1     1     2   501   511 -1.016400015E+01 -8.153819670E+01  3.206191037E+02  3.309809573E+02  3.814697266E-06  0.00000E+00  9.000E+00
#rwgt            1           1   5.6702244449421346E-002          26      242695           0
</event>
<event>
      5   9999  3.70600E-02  9.60442E+00 -1.00000E+00  1.97801E-01
      21    -1     0     0   512   501  0.000000000E+00  0.000000000E+00  8.908189380E+02  8.908189380E+02  0.000000000E+00  0.00000E+00  9.000E+00
      21    -1     0     0   501   502  0.000000000E+00  0.000000000E+00 -1.271557559E+02  1.271557559E+02  0.000000000E+00  0.00000E+00  9.000E+00
      25     1     1     2     0     0  1.115873146E+02 -1.184980062E+01 -4.678163203E+01  1.743722101E+02  1.250000000E+02  0.00000E+00  9.000E+00
      25     1     1     2     0     0 -1.116004729E+02  2.145421497E+01  4.153671380E+02  4.484080822E+02  1.250000000E+02  0.00000E+00  9.000E+00
      21     1     1     2   512   502  1.315835750E-02 -9.604414349E+00  3.950776761E+02  3.951944016E+02  0.000000000E+00  0.00000E+00  9.000E+00
#rwgt            1           1   4.4766974457859307E-002          26      242885           0
</event>
<event>
      5   9999  3.70600E-02  7.14488E+01 -1.00000E+00  1.30770E-01
      21    -1     0     0   502   501  0.000000000E+00  0.000000000E+00  6.379025249E+02  6.379025249E+02  0.000000000E+00  0.00000E+00  9.000E+00
      21    -1     0     0   511   502  0.000000000E+00  0.000000000E+00 -2.426705545E+02  2.426705545E+02  0.000000000E+00  0.00000E+00  9.000E+00
      25     1     1     2     0     0  2.872946959E+02  1.018265079E+02  1.909839387E+02  3.807975116E+02  1.250000000E+02  0.00000E+00  9.000E+00
      25     1     1     2     0     0 -3.535519628E+02 -7.508882949E+01  1.895155756E+02  4.268237061E+02  1.250000000E+02  0.00000E+00  9.000E+00
      21     1     1     2   511   501  6.625726690E+01 -2.673767844E+01  1.473245603E+01  7.295186170E+01  1.545128989E-06  0.00000E+00  9.000E+00
#rwgt            1           1  0.10588072662449081               26      243425           0
</event>
<event>
      5   9999  3.70600E-02  2.45204E+01 -1.00000E+00  1.59381E-01
      21    -1     0     0   502   501  0.000000000E+00  0.000000000E+00  5.546370983E+02  5.546370983E+02  0.000000000E+00  0.00000E+00  9.000E+00
      21    -1     0     0   501   512  0.000000000E+00  0.000000000E+00 -9.577056679E+01  9.577056679E+01  0.000000000E+00  0.00000E+00  9.000E+00
      25     1     1     2     0     0  6.597937466E+01  1.139998397E+02  1.517033118E+02  2.366181230E+02  1.250000000E+02  0.00000E+00  9.000E+00
      25     1     1     2     0     0 -9.049809417E+01 -1.142888811E+02  3.290077153E+02  3.809500362E+02  1.250000000E+02  0.00000E+00  9.000E+00
      21     1     1     2   502   512  2.451871951E+01  2.890413800E-01 -2.184449563E+01  3.283950579E+01  5.331201500E-07  0.00000E+00  9.000E+00
#rwgt            1           1   3.4181891383118210E-002          26      243679           0
</event>
<event>
      5   9999 -3.70600E-02  3.45117E+01 -1.00000E+00  1.48928E-01
      21    -1     0     0   502   501  0.000000000E+00  0.000000000E+00  5.569164278E+01  5.569164278E+01  0.000000000E+00  0.00000E+00  9.000E+00
      21    -1     0     0   501   511  0.000000000E+00  0.000000000E+00 -1.517902681E+03  1.517902681E+03  0.000000000E+00  0.00000E+00  9.000E+00
      25     1     1     2     0     0  1.798085379E+02  5.509182858E+01 -8.981195480E+02  9.260723203E+02  1.250000000E+02  0.00000E+00  9.000E+00
      25     1     1     2     0     0 -1.953601450E+02 -8.590096419E+01 -3.380680672E+02  4.188789562E+02  1.250000000E+02  0.00000E+00  9.000E+00
      21     1     1     2   502   511  1.555160705E+01  3.080913560E+01 -2.260234227E+02  2.286430470E+02  2.697398305E-06  0.00000E+00  9.000E+00
#rwgt            1           1 -0.13612037451167883               26      243897           0
</event>
<event>
      5   9999  3.70600E-02  9.15506E+01 -1.00000E+00  1.25575E-01
      21    -1     0     0   502   501  0.000000000E+00  0.000000000E+00  7.764445518E+01  7.764445518E+01  0.000000000E+00  0.00000E+00  9.000E+00
      21    -1     0     0   501   512  0.000000000E+00  0.000000000E+00 -1.056263209E+03  1.056263209E+03  0.000000000E+00  0.00000E+00  9.000E+00
      25     1     1     2     0     0 -8.515752316E+01  6.413384766E+00 -6.101395619E+02  6.286399766E+02  1.250000000E+02  0.00000E+00  9.000E+00
      25     1     1     2     0     0  1.755588262E+02 -2.087417071E+01 -1.367019390E+02  2.560645477E+02  1.250000000E+02  0.00000E+00  9.000E+00
      21     1     1     2   502   512 -9.040130307E+01  1.446078595E+01 -2.317772533E+02  2.492031401E+02  2.697398305E-06  0.00000E+00  9.000E+00
#rwgt            1           1   3.9758683475183604E-002          26      244140           0
</event>
<event>
      5   9999  3.70600E-02  2.56816E+01 -1.00000E+00  1.57878E-01
      21    -1     0     0   502   511  0.000000000E+00  0.000000000E+00  8.208151452E+02  8.208151452E+02  0.000000000E+00  0.00000E+00  9.000E+00
      21    -1     0     0   501   502  0.000000000E+00  0.000000000E+00 -1.027635575E+02  1.027635575E+02  0.000000000E+00  0.00000E+00  9.000E+00
      25     1     1     2     0     0  4.034135713E+01  6.085333017E+01 -2.045550584E+01  1.461984289E+02  1.250000000E+02  0.00000E+00  9.000E+00
      25     1     1     2     0     0 -2.014199673E+01 -7.671311248E+01  2.679709789E+02  3.061438342E+02  1.250000000E+02  0.00000E+00  9.000E+00
      21     1     1     2   501   511 -2.019936040E+01  1.585978231E+01  4.705361146E+02  4.712364396E+02  5.394796609E-06  0.00000E+00  9.000E+00
#rwgt            1           1   4.6471796044387795E-002          26      244290           0
</event>
<event>
      5   9999  3.70600E-02  1.53108E+01 -1.00000E+00  1.76545E-01
      21    -1     0     0   502   501  0.000000000E+00  0.000000000E+00  3.269861400E+01  3.269861400E+01  0.000000000E+00  0.00000E+00  9.000E+00
      21    -1     0     0   501   512  0.000000000E+00  0.000000000E+00 -1.705801477E+03  1.705801477E+03  0.000000000E+00  0.00000E+00  9.000E+00
      25     1     1     2     0     0  8.392500776E+01  1.467924546E+02 -8.158415892E+02  8.425045580E+02  1.250000000E+02  0.00000E+00  9.000E+00
      25     1     1     2     0     0 -7.422420994E+01 -1.586379459E+02 -5.852309908E+02  6.235347174E+02  1.250000000E+02  0.00000E+00  9.000E+00
      21     1     1     2   502   512 -9.700797821E+00  1.184549132E+01 -2.720302828E+02  2.724608154E+02  5.394796609E-06  0.00000E+00  9.000E+00
#rwgt            1           1   6.5999327642460373E-002          26      244526           0
</event>
<event>
      5   9999  3.70600E-02  1.46442E+02 -1.00000E+00  1.16807E-01
       2    -1     0     0   502     0  0.000000000E+00  0.000000000E+00  3.790249264E+02  3.790249264E+02  0.000000000E+00  0.00000E+00  9.000E+00
      21    -1     0     0   501   502  0.000000000E+00  0.000000000E+00 -1.388001420E+03  1.388001420E+03  0.000000000E+00  0.00000E+00  9.000E+00
      25     1     1     2     0     0 -2.304057740E+02  2.306965702E+02 -4.129822545E+02  5.408207381E+02  1.250000000E+02  0.00000E+00  9.000E+00
      25     1     1     2     0     0  3.746914350E+02 -2.056601016E+02 -8.347547322E+02  9.461132130E+02  1.250000000E+02  0.00000E+00  9.000E+00
       2     1     1     2   501     0 -1.442856610E+02 -2.503646864E+01  2.387604932E+02  2.800923952E+02  5.394796609E-06  0.00000E+00  9.000E+00
#rwgt            2          18   3.4931155993217391E-004          26      244763           0
</event>
<event>
      5   9999 -3.70600E-02  9.99544E+01 -1.00000E+00  1.23835E-01
      21    -1     0     0   502   501  0.000000000E+00  0.000000000E+00  5.378003857E+01  5.378003857E+01  0.000000000E+00  0.00000E+00  9.000E+00
       2    -1     0     0   501     0  0.000000000E+00  0.000000000E+00 -2.425971520E+03  2.425971520E+03  0.000000000E+00  0.00000E+00  9.000E+00
      25     1     1     2     0     0 -1.174942339E+02  2.209641194E+02 -4.528558137E+02  5.322907336E+02  1.250000000E+02  0.00000E+00  9.000E+00
      25     1     1     2     0     0  1.003164938E+02 -1.224967818E+02 -8.564952645E+02  8.799306783E+02  1.250000000E+02  0.00000E+00  9.000E+00
       2     1     1     2   502     0  1.717774006E+01 -9.846733767E+01 -1.062840403E+03  1.067530146E+03  3.051757812E-05  0.00000E+00  9.000E+00
#rwgt            1           1 -0.29480682746562153               26      244782           0
</event>
<event>
      5   9999  3.70600E-02  8.22636E+01 -1.00000E+00  1.27764E-01
      21    -1     0     0   502   501  0.000000000E+00  0.000000000E+00  1.452235378E+02  1.452235378E+02  0.000000000E+00  0.00000E+00  9.000E+00
       2    -1     0     0   501     0  0.000000000E+00  0.000000000E+00 -2.644295924E+03  2.644295924E+03  0.000000000E+00  0.00000E+00  9.000E+00
      25     1     1     2     0     0  9.756653878E+01  1.896099014E+02 -1.638551720E+02  2.965546520E+02  1.250000000E+02  0.00000E+00  9.000E+00
      25     1     1     2     0     0 -3.336438043E+01 -1.381766307E+02 -3.650189168E+01  1.927779844E+02  1.250000000E+02  0.00000E+00  9.000E+00
       2     1     1     2   502     0 -6.420215835E+01 -5.143327072E+01 -2.298715323E+03  2.300186826E+03  4.315837288E-05  0.00000E+00  9.000E+00
#rwgt            1           1   3.8173415448565284E-002          26      244952           0
</event>
<event>
      5   9999  3.70600E-02  2.28822E+01 -1.00000E+00  1.61682E-01
      21    -1     0     0   511   501  0.000000000E+00  0.000000000E+00  9.918769343E+01  9.918769343E+01  0.000000000E+00  0.00000E+00  9.000E+00
      21    -1     0     0   501   502  0.000000000E+00  0.000000000E+00 -3.749992919E+02  3.749992919E+02  0.000000000E+00  0.00000E+00  9.000E+00
      25     1     1     2     0     0 -2.261036224E+01 -1.065853283E+02 -8.007964602E+01  1.841450797E+02  1.250000000E+02  0.00000E+00  9.000E+00
      25     1     1     2     0     0  2.586338603E+01  1.292351353E+02 -1.959038500E+02  2.671590414E+02  1.250000000E+02  0.00000E+00  9.000E+00
      21     1     1     2   511   502 -3.253023789E+00 -2.264980707E+01  1.718976232E-01  2.288286417E+01  5.763675439E-07  0.00000E+00  9.000E+00
#rwgt            1           1   3.7364215206924040E-002          26      245228           0
</event>
<event>
      5   9999  3.70600E-02  4.98455E+01 -1.00000E+00  1.39150E-01
      21    -1     0     0   502   512  0.000000000E+00  0.000000000E+00  5.386072141E+02  5.386072141E+02  0.000000000E+00  0.00000E+00  9.000E+00
      21    -1     0     0   501   502  0.000000000E+00  0.000000000E+00 -1.619264586E+02  1.619264586E+02  0.000000000E+00  0.00000E+00  9.000E+00
      25     1     1     2     0     0 -1.113839475E+02  7.630071458E+01 -5.642771467E+01  1.924506944E+02  1.250000000E+02  0.00000E+00  9.000E+00
      25     1     1     2     0     0  1.608442038E+02 -7.011520129E+01  3.410017456E+02  4.033536784E+02  1.250000000E+02  0.00000E+00  9.000E+00
      21     1     1     2   501   512 -4.946025633E+01 -6.185513291E+00  9.210672458E+01  1.047292998E+02  1.348699152E-06  0.00000E+00  9.000E+00
#rwgt            1           1   3.4652458569941140E-002          26      245441           0
</event>
<event>
      5   9999  3.70600E-02  2.18668E+01 -1.00000E+00  1.63231E-01
      21    -1     0     0   502   501  0.000000000E+00  0.000000000E+00  1.731326138E+03  1.731326138E+03  0.000000000E+00  0.00000E+00  9.000E+00
      21    -1     0     0   511   502  0.000000000E+00  0.000000000E+00 -1.999566216E+02  1.999566216E+02  0.000000000E+00  0.00000E+00  9.000E+00
      25     1     1     2     0     0  1.188525243E+02  5.868618262E+01  5.345933252E+02  5.647875830E+02  1.250000000E+02  0.00000E+00  9.000E+00
      25     1     1     2     0     0 -1.146729362E+02 -8.014981359E+01  1.173510561E+03  1.188413190E+03  1.250000000E+02  0.00000E+00  9.000E+00
      21     1     1     2   511   501 -4.179588068E+00  2.146363097E+01 -1.767343696E+02  1.780819862E+02  5.722045898E-06  0.00000E+00  9.000E+00
#rwgt            1           1   2.9948075885492635E-002          26      245793           0
</event>
<event>
      5   9999  3.70600E-02  3.72982E+02 -1.00000E+00  1.02607E-01
      21    -1     0     0   502   501  0.000000000E+00  0.000000000E+00  5.825017345E+02  5.825017345E+02  0.000000000E+00  0.00000E+00  9.000E+00
       3    -1     0     0   501     0  0.000000000E+00  0.000000000E+00 -1.062834204E+03  1.062834204E+03  0.000000000E+00  0.00000E+00  9.000E+00
      25     1     1     2     0     0  1.060015117E+02 -2.900866141E+02  5.580203589E+01  3.378245571E+02  1.250000000E+02  0.00000E+00  9.000E+00
      25     1     1     2     0     0  2.501197567E+02  1.792114271E+02  2.642962398E+02  4.244456746E+02  1.250000000E+02  0.00000E+00  9.000E+00
       3     1     1     2   502     0 -3.561212683E+02  1.108751870E+02 -8.004307454E+02  8.830657071E+02  1.525878906E-05  0.00000E+00  9.000E+00
#rwgt            2          14   5.4574578118517173E-005          26      246086           0
</event>
<event>
      5   9999  3.70600E-02  2.77541E+01 -1.00000E+00  1.55422E-01
      21    -1     0     0   502   501  0.000000000E+00  0.000000000E+00  9.808065219E+02  9.808065219E+02  0.000000000E+00  0.00000E+00  9.000E+00
      21    -1     0     0   501   511  0.000000000E+00  0.000000000E+00 -5.530690668E+01  5.530690668E+01  0.000000000E+00  0.00000E+00  9.000E+00
      25     1     1     2     0     0 -8.170946452E+01 -6.365934054E+01  1.373900492E+02  2.126733971E+02  1.250000000E+02  0.00000E+00  9.000E+00
      25     1     1     2     0     0  6.207506994E+01  4.404352632E+01  7.812653281E+02  7.948544894E+02  1.250000000E+02  0.00000E+00  9.000E+00
      21     1     1     2   502   511  1.963439458E+01  1.961581422E+01  6.844237930E+00  2.858554199E+01  3.153981341E-07  0.00000E+00  9.000E+00
#rwgt            1           1   3.9262855089127774E-002          26      246285           0
</event>
<event>
      5   9999  3.70600E-02  1.41852E+01 -1.00000E+00  1.79696E-01
      21    -1     0     0   502   501  0.000000000E+00  0.000000000E+00  3.836404447E+02  3.836404447E+02  0.000000000E+00  0.00000E+00  9.000E+00
      21    -1     0     0   501   512  0.000000000E+00  0.000000000E+00 -5.636850678E+02  5.636850678E+02  0.000000000E+00  0.00000E+00  9.000E+00
      25     1     1     2     0     0 -1.649908199E+01  1.516424420E+02 -7.374436033E+01  2.105489981E+02  1.250000000E+02  0.00000E+00  9.000E+00
      25     1     1     2     0     0  1.678504114E+01 -1.374601444E+02  2.874994464E+02  3.427214037E+02  1.250000000E+02  0.00000E+00  9.000E+00
      21     1     1     2   502   512 -2.859591543E-01 -1.418229766E+01 -3.937997091E+02  3.940551106E+02  0.000000000E+00  0.00000E+00  9.000E+00
#rwgt            1           1   4.9148637220236789E-002          26      246598           0
</event>
<event>
      5   9999  3.70600E-02  1.01759E+02 -1.00000E+00  1.23487E-01
      21    -1     0     0   502   501  0.000000000E+00  0.000000000E+00  1.242515450E+02  1.242515450E+02  0.000000000E+00  0.00000E+00  9.000E+00
      21    -1     0     0   501   511  0.000000000E+00  0.000000000E+00 -6.622237179E+02  6.622237179E+02  0.000000000E+00  0.00000E+00  9.000E+00
      25     1     1     2     0     0 -8.187854440E+01  5.479267872E+01  3.308486450E+01  1.625605793E+02  1.250000000E+02  0.00000E+00  9.000E+00
      25     1     1     2     0     0  1.479373372E+01  2.172156938E+01 -1.859819332E+02  2.256212770E+02  1.250000000E+02  0.00000E+00  9.000E+00
      21     1     1     2   502   511  6.708481069E+01 -7.651424810E+01 -3.850751041E+02  3.982934066E+02  5.394796609E-06  0.00000E+00  9.000E+00
#rwgt            1           1   3.9956045006461209E-002          26      247266           0
</event>
<event>
      5   9999  3.70600E-02  4.14051E+01 -1.00000E+00  1.43914E-01
      21    -1     0     0   502   512  0.000000000E+00  0.000000000E+00  1.352712108E+02  1.352712108E+02  0.000000000E+00  0.00000E+00  9.000E+00
      21    -1     0     0   501   502  0.000000000E+00  0.000000000E+00 -4.049624658E+02  4.049624658E+02  0.000000000E+00  0.00000E+00  9.000E+00
      25     1     1     2     0     0  8.665982416E+01 -2.067792540E+01 -4.888823647E+01  1.610979869E+02  1.250000000E+02  0.00000E+00  9.000E+00
      25     1     1     2     0     0 -9.916371117E+01  6.014986372E+01 -2.671851186E+02  3.169610943E+02  1.250000000E+02  0.00000E+00  9.000E+00
      21     1     1     2   501   512  1.250388700E+01 -3.947193833E+01  4.638209999E+01  6.217459534E+01  9.536743164E-07  0.00000E+00  9.000E+00
#rwgt            1           1   7.5679337672933222E-002          26      247460           0
</event>
<event>
      5   9999  3.70600E-02  8.44774E+01 -1.00000E+00  1.27213E-01
      21    -1     0     0   511   501  0.000000000E+00  0.000000000E+00  1.318778087E+02  1.318778087E+02  0.000000000E+00  0.00000E+00  9.000E+00
      21    -1     0     0   501   502  0.000000000E+00  0.000000000E+00 -5.322868332E+02  5.322868332E+02  0.000000000E+00  0.00000E+00  9.000E+00
      25     1     1     2     0     0 -9.241830784E+01  7.073928232E+01 -2.062349586E+02  2.677742479E+02  1.250000000E+02  0.00000E+00  9.000E+00
      25     1     1     2     0     0  8.091150965E+01 -1.544293223E+02 -2.207651224E+02  3.078267813E+02  1.250000000E+02  0.00000E+00  9.000E+00
      21     1     1     2   511   502  1.150679819E+01  8.369004002E+01  2.659105661E+01  8.856361270E+01  1.118282261E-06  0.00000E+00  9.000E+00
#rwgt            1           1   3.2614158540501779E-002          26      247929           0
</event>
<event>
      5   9999  3.70600E-02  1.19092E+02 -1.00000E+00  1.20507E-01
      21    -1     0     0   512   501  0.000000000E+00  0.000000000E+00  2.991654696E+03  2.991654696E+03  0.000000000E+00  0.00000E+00  9.000E+00
      21    -1     0     0   501   502  0.000000000E+00  0.000000000E+00 -2.186412685E+02  2.186412685E+02  0.000000000E+00  0.00000E+00  9.000E+00
      25     1     1     2     0     0 -2.388160334E+02  6.132013482E+01 -6.940268872E+01  2.850175257E+02  1.250000000E+02  0.00000E+00  9.000E+00
      25     1     1     2     0     0  1.209115907E+02 -7.809638394E+01  1.865026821E+02  2.666962849E+02  1.250000000E+02  0.00000E+00  9.000E+00
      21     1     1     2   512   502  1.179044427E+02  1.677624912E+01  2.655913434E+03  2.658582154E+03  0.000000000E+00  0.00000E+00  9.000E+00
#rwgt            1           1   3.0732958161103944E-002          26      248030           0
</event>
<event>
      5   9999  3.70600E-02  2.25943E+02 -1.00000E+00  1.09752E-01
      21    -1     0     0   511   501  0.000000000E+00  0.000000000E+00  2.504644827E+02  2.504644827E+02  0.000000000E+00  0.00000E+00  9.000E+00
      21    -1     0     0   501   502  0.000000000E+00  0.000000000E+00 -5.592179501E+02  5.592179501E+02  0.000000000E+00  0.00000E+00  9.000E+00
      25     1     1     2     0     0 -8.313982175E+01 -4.480097821E+01 -2.440961445E+02  2.900470399E+02  1.250000000E+02  0.00000E+00  9.000E+00
      25     1     1     2     0     0  7.944113900E+00  2.578637666E+02 -8.412254720E+00  2.867971358E+02  1.250000000E+02  0.00000E+00  9.000E+00
      21     1     1     2   511   502  7.519570785E+01 -2.130627884E+02 -5.624506816E+01  2.328382571E+02  1.784161275E-06  0.00000E+00  9.000E+00
#rwgt            1           1   4.2571394252749896E-002          26      248131           0
</event>
<event>
      5   9999 -3.70600E-02  1.37379E+01 -1.00000E+00  1.81053E-01
      21    -1     0     0   502   512  0.000000000E+00  0.000000000E+00  2.569135146E+02  2.569135146E+02  0.000000000E+00  0.00000E+00  9.000E+00
      21    -1     0     0   501   502  0.000000000E+00  0.000000000E+00 -1.352432274E+02  1.352432274E+02  0.000000000E+00  0.00000E+00  9.000E+00
      25     1     1     2     0     0  8.371154132E+01  6.290398942E+01  5.250183572E+01  1.713066747E+02  1.250000000E+02  0.00000E+00  9.000E+00
      25     1     1     2     0     0 -7.625811563E+01 -5.136380782E+01  5.027113933E+00  1.552540268E+02  1.250000000E+02  0.00000E+00  9.000E+00
      21     1     1     2   501   512 -7.453425688E+00 -1.154018160E+01  6.414133761E+01  6.559604055E+01  0.000000000E+00  0.00000E+00  9.000E+00
#rwgt            1           1 -0.17853606921034995               26      248500           0
</event>
<event>
      5   9999  3.70600E-02  3.16577E+01 -1.00000E+00  1.51432E-01
      21    -1     0     0   502   511  0.000000000E+00  0.000000000E+00  1.333588292E+03  1.333588292E+03  0.000000000E+00  0.00000E+00  9.000E+00
      21    -1     0     0   501   502  0.000000000E+00  0.000000000E+00 -9.402368457E+02  9.402368457E+02  0.000000000E+00  0.00000E+00  9.000E+00
      25     1     1     2     0     0 -9.829024862E+01  2.317575541E+01 -1.457223928E+02  2.169288003E+02  1.250000000E+02  0.00000E+00  9.000E+00
      25     1     1     2     0     0  6.999150597E+01 -3.736704405E+01 -7.514943835E+02  7.659398901E+02  1.250000000E+02  0.00000E+00  9.000E+00
      21     1     1     2   501   511  2.829874265E+01  1.419128865E+01  1.290568223E+03  1.290956448E+03  1.525878906E-05  0.00000E+00  9.000E+00
#rwgt            1           1   3.8373393577082367E-002          26      248796           0
</event>
<event>
      5   9999  3.70600E-02  2.12425E+01 -1.00000E+00  1.64235E-01
      21    -1     0     0   502   501  0.000000000E+00  0.000000000E+00  2.410331452E+02  2.410331452E+02  0.000000000E+00  0.00000E+00  9.000E+00
      21    -1     0     0   501   512  0.000000000E+00  0.000000000E+00 -3.178032722E+02  3.178032722E+02  0.000000000E+00  0.00000E+00  9.000E+00
      25     1     1     2     0     0  1.052481058E+02  1.244508939E+02 -6.074232608E+00  2.054922993E+02  1.250000000E+02  0.00000E+00  9.000E+00
      25     1     1     2     0     0 -8.573495771E+01 -1.160555173E+02  7.573673122E+01  2.053787197E+02  1.250000000E+02  0.00000E+00  9.000E+00
      21     1     1     2   502   512 -1.951314814E+01 -8.395376622E+00 -1.464326256E+02  1.479653984E+02  0.000000000E+00  0.00000E+00  9.000E+00
#rwgt            1           1   2.5403131804588357E-002          26      249014           0
</event>
<event>
      5   9999  3.70600E-02  4.11346E+01 -1.00000E+00  1.44088E-01
      21    -1     0     0   511   501  0.000000000E+00  0.000000000E+00  2.185832289E+02  2.185832289E+02  0.000000000E+00  0.00000E+00  9.000E+00
      21    -1     0     0   501   502  0.000000000E+00  0.000000000E+00 -6.075062037E+02  6.075062037E+02  0.000000000E+00  0.00000E+00  9.000E+00
      25     1     1     2     0     0  5.190876459E+01  1.498776777E+02 -5.016052066E+02  5.407315613E+02  1.250000000E+02  0.00000E+00  9.000E+00
      25     1     1     2     0     0 -9.274966876E+01 -1.547840310E+02  1.056991898E+02  2.436348005E+02  1.250000000E+02  0.00000E+00  9.000E+00
      21     1     1     2   511   502  4.084090417E+01  4.906353304E+00  6.983042020E+00  4.172307074E+01  2.230201594E-07  0.00000E+00  9.000E+00
#rwgt            1           1   3.8883775759289384E-002          26      249697           0
</event>
<event>
      5   9999  3.70600E-02  9.00285E+01 -1.00000E+00  1.25913E-01
      21    -1     0     0   502   501  0.000000000E+00  0.000000000E+00  6.776626198E+02  6.776626198E+02  0.000000000E+00  0.00000E+00  9.000E+00
      21    -1     0     0   501   512  0.000000000E+00  0.000000000E+00 -3.065777709E+02  3.065777709E+02  0.000000000E+00  0.00000E+00  9.000E+00
      25     1     1     2     0     0 -1.349822888E+02 -9.568923689E-01  5.151345890E+02  5.470007118E+02  1.250000000E+02  0.00000E+00  9.000E+00
      25     1     1     2     0     0  5.757759078E+01 -4.501740010E+01  1.007560799E+02  1.764044583E+02  1.250000000E+02  0.00000E+00  9.000E+00
      21     1     1     2   502   512  7.740469799E+01  4.597429247E+01 -2.448058200E+02  2.608352207E+02  3.814697266E-06  0.00000E+00  9.000E+00
#rwgt            1           1   3.9296371719088813E-002          26      250230           0
</event>
<event>
      5   9999  3.70600E-02  3.73142E+01 -1.00000E+00  1.46735E-01
      21    -1     0     0   502   501  0.000000000E+00  0.000000000E+00  1.609225951E+02  1.609225951E+02  0.000000000E+00  0.00000E+00  9.000E+00
      21    -1     0     0   511   502  0.000000000E+00  0.000000000E+00 -3.453500493E+02  3.453500493E+02  0.000000000E+00  0.00000E+00  9.000E+00
      25     1     1     2     0     0 -2.746211450E+01  5.841952369E+00  9.998043770E+01  1.625096430E+02  1.250000000E+02  0.00000E+00  9.000E+00
      25     1     1     2     0     0  8.271369174E+00  2.615903407E+01 -1.209041616E+02  1.760554654E+02  1.250000000E+02  0.00000E+00  9.000E+00
      21     1     1     2   511   501  1.919074532E+01 -3.200098643E+01 -1.635037302E+02  1.677075360E+02  2.697398305E-06  0.00000E+00  9.000E+00
#rwgt            1           1   4.2332946300298553E-002          26      250870           0
</event>
<event>
      5   9999  3.70600E-02  4.24091E+01 -1.00000E+00  1.43280E-01
      21    -1     0     0   502   501  0.000000000E+00  0.000000000E+00  1.765061517E+02  1.765061517E+02  0.000000000E+00  0.00000E+00  9.000E+00
      21    -1     0     0   512   502  0.000000000E+00  0.000000000E+00 -1.000617146E+03  1.000617146E+03  0.000000000E+00  0.00000E+00  9.000E+00
      25     1     1     2     0     0 -2.521724891E+01 -3.484521254E+02 -3.009622638E+02  4.777636210E+02  1.250000000E+02  0.00000E+00  9.000E+00
      25     1     1     2     0     0  6.749127907E+01  3.518341590E+02 -3.339308518E+02  5.054474869E+02  1.250000000E+02  0.00000E+00  9.000E+00
      21     1     1     2   512   501 -4.227403016E+01 -3.382033667E+00 -1.892178782E+02  1.939121894E+02  2.697398305E-06  0.00000E+00  9.000E+00
#rwgt            1           1  0.17878627608269940               26      251274           0
</event>
<event>
      5   9999  3.70600E-02  5.35010E+01 -1.00000E+00  1.37417E-01
      21    -1     0     0   502   501  0.000000000E+00  0.000000000E+00  1.083692236E+03  1.083692236E+03  0.000000000E+00  0.00000E+00  9.000E+00
      21    -1     0     0   511   502  0.000000000E+00  0.000000000E+00 -1.890221303E+02  1.890221303E+02  0.000000000E+00  0.00000E+00  9.000E+00
      25     1     1     2     0     0  2.109877189E+01  3.891468473E+02  3.134348310E+02  5.155063726E+02  1.250000000E+02  0.00000E+00  9.000E+00
      25     1     1     2     0     0  2.963720114E+01 -4.061237822E+02  5.485529240E+02  6.945143631E+02  1.250000000E+02  0.00000E+00  9.000E+00
      21     1     1     2   511   501 -5.073597303E+01  1.697693487E+01  3.268235085E+01  6.269363072E+01  1.507891493E-06  0.00000E+00  9.000E+00
#rwgt            1           1   3.3384615249292829E-002          26      251565           0
</event>
<event>
      5   9999  3.70600E-02  1.30257E+02 -1.00000E+00  1.18874E-01
      21    -1     0     0   512   501  0.000000000E+00  0.000000000E+00  2.395130758E+02  2.395130758E+02  0.000000000E+00  0.00000E+00  9.000E+00
      21    -1     0     0   501   502  0.000000000E+00  0.000000000E+00 -6.594925308E+02  6.594925308E+02  0.000000000E+00  0.00000E+00  9.000E+00
      25     1     1     2     0     0  1.034667420E+02 -7.527193057E+01  1.011061066E+01  1.791604160E+02  1.250000000E+02  0.00000E+00  9.000E+00
      25     1     1     2     0     0 -2.322107472E+02  9.506792750E+01 -4.990988211E+02  5.724372238E+02  1.250000000E+02  0.00000E+00  9.000E+00
      21     1     1     2   512   502  1.287440052E+02 -1.979599693E+01  6.900875535E+01  1.474079668E+02  1.651812370E-06  0.00000E+00  9.000E+00
#rwgt            1           1   3.2890308127987253E-002          26      251925           0
</event>
<event>
      5   9999  3.70600E-02  1.61621E+01 -1.00000E+00  1.74381E-01
      21    -1     0     0   502   501  0.000000000E+00  0.000000000E+00  1.888704121E+01  1.888704121E+01  0.000000000E+00  0.00000E+00  9.000E+00
      21    -1     0     0   511   502  0.000000000E+00  0.000000000E+00 -2.731930161E+03  2.731930161E+03  0.000000000E+00  0.00000E+00  9.000E+00
      25     1     1     2     0     0 -1.165562259E+02  8.806096895E+00 -1.573250284E+03  1.582530997E+03  1.250000000E+02  0.00000E+00  9.000E+00
      25     1     1     2     0     0  1.323974148E+02 -1.201087382E+01 -5.749659474E+02  6.032281304E+02  1.250000000E+02  0.00000E+00  9.000E+00
      21     1     1     2   511   501 -1.584118895E+01  3.204776921E+00 -5.648268884E+02  5.650580746E+02  0.000000000E+00  0.00000E+00  9.000E+00
#rwgt            1           1   9.7396289540500988E-002          26      252326           0
</event>
<event>
      5   9999  3.70600E-02  1.52182E+01 -1.00000E+00  1.76791E-01
       1    -1     0     0   502     0  0.000000000E+00  0.000000000E+00  2.296038477E+02  2.296038477E+02  0.000000000E+00  0.00000E+00  9.000E+00
      21    -1     0     0   501   502  0.000000000E+00  0.000000000E+00 -2.277448446E+02  2.277448446E+02  0.000000000E+00  0.00000E+00  9.000E+00
      25     1     1     2     0     0 -1.481264163E+02 -2.328436045E+01 -6.506045926E+00  1.953226185E+02  1.250000000E+02  0.00000E+00  9.000E+00
      25     1     1     2     0     0  1.438001460E+02  3.787469940E+01 -5.091476569E+01  2.008240230E+02  1.250000000E+02  0.00000E+00  9.000E+00
       1     1     1     2   501     0  4.326270342E+00 -1.459033894E+01  5.927981470E+01  6.120205092E+01  0.000000000E+00  0.00000E+00  9.000E+00
#rwgt            1           1   3.8554277855717869E-002          26      252701           0
</event>
<event>
      5   9999  3.70600E-02  1.60189E+01 -1.00000E+00  1.74733E-01
      21    -1     0     0   502   511  0.000000000E+00  0.000000000E+00  5.317870234E+01  5.317870234E+01  0.000000000E+00  0.00000E+00  9.000E+00
      21    -1     0     0   501   502  0.000000000E+00  0.000000000E+00 -8.004300635E+02  8.004300635E+02  0.000000000E+00  0.00000E+00  9.000E+00
      25     1     1     2     0     0  6.565518193E+01 -1.128637326E+02 -4.626779630E+02  4.967340561E+02  1.250000000E+02  0.00000E+00  9.000E+00
      25     1     1     2     0     0 -5.360511910E+01  1.234183624E+02 -2.869385681E+02  3.406821728E+02  1.250000000E+02  0.00000E+00  9.000E+00
      21     1     1     2   501   511 -1.205006283E+01 -1.055462978E+01  2.365169972E+00  1.619253695E+01  4.107966647E-07  0.00000E+00  9.000E+00
#rwgt            1           1   3.1919921170127818E-002          26      253186           0
</event>
<event>
      5   9999  3.70600E-02  3.39128E+01 -1.00000E+00  1.49429E-01
      21    -1     0     0   502   512  0.000000000E+00  0.000000000E+00  5.219867144E+02  5.219867144E+02  0.000000000E+00  0.00000E+00  9.000E+00
      21    -1     0     0   501   502  0.000000000E+00  0.000000000E+00 -3.521706411E+02  3.521706411E+02  0.000000000E+00  0.00000E+00  9.000E+00
      25     1     1     2     0     0  1.460647180E+02  1.475310493E+02  2.470323116E+01  2.435889201E+02  1.250000000E+02  0.00000E+00  9.000E+00
      25     1     1     2     0     0 -1.784197100E+02 -1.373707268E+02 -1.732562783E+02  3.103982080E+02  1.250000000E+02  0.00000E+00  9.000E+00
      21     1     1     2   501   512  3.235499201E+01 -1.016032250E+01  3.183691205E+02  3.201702274E+02  3.814697266E-06  0.00000E+00  9.000E+00
#rwgt            1           1   8.0583938249001272E-002          26      253772           0
</event>
<event>
      5   9999  3.70600E-02  3.09517E+01 -1.00000E+00  1.52101E-01
      21    -1     0     0   502   511  0.000000000E+00  0.000000000E+00  1.352108674E+02  1.352108674E+02  0.000000000E+00  0.00000E+00  9.000E+00
      21    -1     0     0   501   502  0.000000000E+00  0.000000000E+00 -3.080960297E+02  3.080960297E+02  0.000000000E+00  0.00000E+00  9.000E+00
      25     1     1     2     0     0  1.568960035E+01 -1.288055441E+02 -5.161764032E+01  1.874204165E+02  1.250000000E+02  0.00000E+00  9.000E+00
      25     1     1     2     0     0 -4.123521166E+01  1.113290049E+02 -1.378880197E+02  2.207546058E+02  1.250000000E+02  0.00000E+00  9.000E+00
      21     1     1     2   501   511  2.554561131E+01  1.747653916E+01  1.662049769E+01  3.513187472E+01  4.768371582E-07  0.00000E+00  9.000E+00
#rwgt            1           1   3.4044782629196496E-002          26      254003           0
</event>
<event>
      5   9999  3.70600E-02  2.67245E+01 -1.00000E+00  1.56608E-01
      21    -1     0     0   502   512  0.000000000E+00  0.000000000E+00  7.365774201E+01  7.365774201E+01  0.000000000E+00  0.00000E+00  9.000E+00
      21    -1     0     0   501   502  0.000000000E+00  0.000000000E+00 -3.624601083E+02  3.624601083E+02  0.000000000E+00  0.00000E+00  9.000E+00
      25     1     1     2     0     0 -5.495885559E+01  1.115454788E+01 -9.027361194E+01  1.640707919E+02  1.250000000E+02  0.00000E+00  9.000E+00
      25     1     1     2     0     0  8.020608391E+01 -1.991667541E+01 -1.936888607E+02  2.448878613E+02  1.250000000E+02  0.00000E+00  9.000E+00
      21     1     1     2   501   512 -2.524722832E+01  8.762127530E+00 -4.839893660E+00  2.715919711E+01  6.279738994E-07  0.00000E+00  9.000E+00
#rwgt            1           1   7.1620937273015939E-002          26      254277           0
</event>
<event>
      5   9999  3.70600E-02  5.06225E+01 -1.00000E+00  1.38767E-01
       2    -1     0     0   502     0  0.000000000E+00  0.000000000E+00  1.989277778E+03  1.989277778E+03  0.000000000E+00  0.00000E+00  9.000E+00
      21    -1     0     0   501   502  0.000000000E+00  0.000000000E+00 -1.700554854E+02  1.700554854E+02  0.000000000E+00  0.00000E+00  9.000E+00
      25     1     1     2     0     0  6.321725259E+01  4.181250987E+01 -1.456757577E+01  1.469078666E+02  1.250000000E+02  0.00000E+00  9.000E+00
      25     1     1     2     0     0 -6.576969814E+01 -9.237058230E+01 -8.934962913E+00  1.690053586E+02  1.250000000E+02  0.00000E+00  9.000E+00
       2     1     1     2   501     0  2.552445547E+00  5.055807243E+01  1.842724831E+03  1.843420038E+03  0.000000000E+00  0.00000E+00  9.000E+00
#rwgt            1           1   2.3034073613962692E-002          26      254770           0
</event>
<event>
      5   9999  3.70600E-02  5.07470E+01 -1.00000E+00  1.38707E-01
      21    -1     0     0   502   501  0.000000000E+00  0.000000000E+00  6.782095819E+02  6.782095819E+02  0.000000000E+00  0.00000E+00  9.000E+00
      21    -1     0     0   501   511  0.000000000E+00  0.000000000E+00 -1.650507692E+02  1.650507692E+02  0.000000000E+00  0.00000E+00  9.000E+00
      25     1     1     2     0     0  2.773146994E+02 -3.534806659E+01  2.099484126E+02  3.712900002E+02  1.250000000E+02  0.00000E+00  9.000E+00
      25     1     1     2     0     0 -2.360027846E+02  6.481974515E+01  3.168467912E+02  4.194231787E+02  1.250000000E+02  0.00000E+00  9.000E+00
      21     1     1     2   502   511 -4.131191475E+01 -2.947167856E+01 -1.363639117E+01  5.254717215E+01  1.105501472E-06  0.00000E+00  9.000E+00
#rwgt            1           1   3.3902393807658353E-002          26      255288           0
</event>
<event>
      5   9999  3.70600E-02  3.93847E+01 -1.00000E+00  1.45256E-01
      21    -1     0     0   502   512  0.000000000E+00  0.000000000E+00  2.569247238E+02  2.569247238E+02  0.000000000E+00  0.00000E+00  9.000E+00
      21    -1     0     0   501   502  0.000000000E+00  0.000000000E+00 -3.576250344E+02  3.576250344E+02  0.000000000E+00  0.00000E+00  9.000E+00
      25     1     1     2     0     0  1.892814346E+02  9.815402424E+01 -9.932135784E+01  2.663670514E+02  1.250000000E+02  0.00000E+00  9.000E+00
      25     1     1     2     0     0 -2.257175004E+02 -8.320178014E+01 -5.990279694E+01  2.776405433E+02  1.250000000E+02  0.00000E+00  9.000E+00
      21     1     1     2   501   512  3.643606581E+01 -1.495224409E+01  5.852384412E+01  7.054216346E+01  9.536743164E-07  0.00000E+00  9.000E+00
#rwgt            1           1   2.6597743912595128E-002          26      255785           0
</event>
<event>
      5   9999  3.70600E-02  3.14839E+01 -1.00000E+00  1.51595E-01
      21    -1     0     0   502   501  0.000000000E+00  0.000000000E+00  3.410036447E+02  3.410036447E+02  0.000000000E+00  0.00000E+00  9.000E+00
      21    -1     0     0   501   511  0.000000000E+00  0.000000000E+00 -1.507277212E+02  1.507277212E+02  0.000000000E+00  0.00000E+00  9.000E+00
      25     1     1     2     0     0  1.580903349E+02  4.900506260E+01  7.614444638E+01  2.209457555E+02  1.250000000E+02  0.00000E+00  9.000E+00
      25     1     1     2     0     0 -1.717601135E+02 -2.064358717E+01  1.058164544E+02  2.382221994E+02  1.250000000E+02  0.00000E+00  9.000E+00
      21     1     1     2   502   511  1.366977861E+01 -2.836147543E+01  8.315022670E+00  3.256341103E+01  4.129530925E-07  0.00000E+00  9.000E+00
#rwgt            1           1   4.9099724672439393E-002          26      256491           0
</event>
<event>
      5   9999  3.70600E-02  5.34990E+01 -1.00000E+00  1.37418E-01
      21    -1     0     0   512   501  0.000000000E+00  0.000000000E+00  4.068788458E+02  4.068788458E+02  0.000000000E+00  0.00000E+00  9.000E+00
      21    -1     0     0   501   502  0.000000000E+00  0.000000000E+00 -3.707562633E+02  3.707562633E+02  0.000000000E+00  0.00000E+00  9.000E+00
      25     1     1     2     0     0  1.976836838E+02  8.026218773E+01 -9.130023804E+01  2.635936097E+02  1.250000000E+02  0.00000E+00  9.000E+00
      25     1     1     2     0     0 -1.541716378E+02 -1.113884326E+02 -1.224898350E+02  2.584667029E+02  1.250000000E+02  0.00000E+00  9.000E+00
      21     1     1     2   512   502 -4.351204598E+01  3.112624482E+01  2.499126555E+02  2.555747966E+02  0.000000000E+00  0.00000E+00  9.000E+00
#rwgt            1           1   3.3006141501299623E-002          26      256950           0
</event>
<event>
      5   9999  3.70600E-02  3.74905E+01 -1.00000E+00  1.46605E-01
      21    -1     0     0   502   501  0.000000000E+00  0.000000000E+00  1.668388785E+03  1.668388785E+03  0.000000000E+00  0.00000E+00  9.000E+00
      21    -1     0     0   511   502  0.000000000E+00  0.000000000E+00 -5.049317804E+02  5.049317804E+02  0.000000000E+00  0.00000E+00  9.000E+00
      25     1     1     2     0     0  5.147076659E+02  5.106211883E+02  5.269761319E+01  7.376042419E+02  1.250000000E+02  0.00000E+00  9.000E+00
      25     1     1     2     0     0 -4.797265782E+02 -4.971354616E+02  1.170662672E+03  1.365048478E+03  1.250000000E+02  0.00000E+00  9.000E+00
      21     1     1     2   511   501 -3.498108767E+01 -1.348572666E+01 -5.990328047E+01  7.066784509E+01  0.000000000E+00  0.00000E+00  9.000E+00
#rwgt            1           1   3.4846276093292478E-003          26      257374           0
</event>
<event>
      5   9999  3.70600E-02  5.68886E+01 -1.00000E+00  1.35949E-01
      21    -1     0     0   502   501  0.000000000E+00  0.000000000E+00  1.214948480E+03  1.214948480E+03  0.000000000E+00  0.00000E+00  9.000E+00
      21    -1     0     0   512   502  0.000000000E+00  0.000000000E+00 -7.211193390E+01  7.211193390E+01  0.000000000E+00  0.00000E+00  9.000E+00
      25     1     1     2     0     0 -1.474411311E+02  1.912807635E+00  9.977682019E+02  1.016321273E+03  1.250000000E+02  0.00000E+00  9.000E+00
      25     1     1     2     0     0  9.624049466E+01  2.288257626E+01  1.424629631E+02  2.137908814E+02  1.250000000E+02  0.00000E+00  9.000E+00
      21     1     1     2   512   501  5.120063645E+01 -2.479538389E+01  2.605381333E+00  5.694825939E+01  1.087682700E-06  0.00000E+00  9.000E+00
#rwgt            1           1   3.9672066279557945E-002          26      257831           0
</event>
<event>
      5   9999  3.70600E-02  1.26173E+01 -1.00000E+00  1.84762E-01
      21    -1     0     0   502   511  0.000000000E+00  0.000000000E+00  2.660860472E+01  2.660860472E+01  0.000000000E+00  0.00000E+00  9.000E+00
      21    -1     0     0   501   502  0.000000000E+00  0.000000000E+00 -1.773743836E+03  1.773743836E+03  0.000000000E+00  0.00000E+00  9.000E+00
      25     1     1     2     0     0 -1.319865010E+02 -9.921328160E+00 -1.300968001E+03  1.313644400E+03  1.250000000E+02  0.00000E+00  9.000E+00
      25     1     1     2     0     0  1.224668714E+02  1.640443117E+00 -4.380285009E+02  4.716935374E+02  1.250000000E+02  0.00000E+00  9.000E+00
      21     1     1     2   501   511  9.519629542E+00  8.280885043E+00 -8.138729426E+00  1.501450367E+01  2.920019320E-07  0.00000E+00  9.000E+00
#rwgt            1           1  0.15688738508649694               26      258356           0
</event>
<event>
      5   9999  3.70600E-02  3.99286E+01 -1.00000E+00  1.44886E-01
      21    -1     0     0   502   501  0.000000000E+00  0.000000000E+00  1.607999023E+02  1.607999023E+02  0.000000000E+00  0.00000E+00  9.000E+00
      21    -1     0     0   501   512  0.000000000E+00  0.000000000E+00 -4.019525519E+02  4.019525519E+02  0.000000000E+00  0.00000E+00  9.000E+00
      25     1     1     2     0     0  9.375433801E+01  5.106479812E+01  8.548464354E+01  1.852838735E+02  1.250000000E+02  0.00000E+00  9.000E+00
      25     1     1     2     0     0 -7.967465979E+01 -1.370093098E+01 -2.670760771E+02  3.057619955E+02  1.250000000E+02  0.00000E+00  9.000E+00
      21     1     1     2   502   512 -1.407967822E+01 -3.736386713E+01 -5.956121601E+01  7.170658519E+01  1.168007728E-06  0.00000E+00  9.000E+00
#rwgt            1           1   5.0491316383989931E-002          26      259451           0
</event>
<event>
      5   9999  3.70600E-02  1.29347E+02 -1.00000E+00  1.19000E-01
      21    -1     0     0   511   501  0.000000000E+00  0.000000000E+00  3.515214626E+02  3.515214626E+02  0.000000000E+00  0.00000E+00  9.000E+00
      21    -1     0     0   501   502  0.000000000E+00  0.000000000E+00 -2.747343425E+02  2.747343425E+02  0.000000000E+00  0.00000E+00  9.000E+00
      25     1     1     2     0     0  8.932225094E+01  1.859962734E+02 -9.036744352E+01  2.576127968E+02  1.250000000E+02  0.00000E+00  9.000E+00
      25     1     1     2     0     0  3.510065900E+01 -1.506480311E+02  9.299266518E+01  2.195438939E+02  1.250000000E+02  0.00000E+00  9.000E+00
      21     1     1     2   511   502 -1.244229099E+02 -3.534824221E+01  7.416189844E+01  1.490991144E+02  1.907348633E-06  0.00000E+00  9.000E+00
#rwgt            1           1   2.9558603065002485E-002          26      259701           0
</event>
<event>
      5   9999  3.70600E-02  7.12016E+01 -1.00000E+00  1.30845E-01
      21    -1     0     0   502   501  0.000000000E+00  0.000000000E+00  1.926410818E+02  1.926410818E+02  0.000000000E+00  0.00000E+00  9.000E+00
       2    -1     0     0   501     0  0.000000000E+00  0.000000000E+00 -8.099676100E+02  8.099676100E+02  0.000000000E+00  0.00000E+00  9.000E+00
      25     1     1     2     0     0 -1.572880031E+02  8.824120268E+01  4.839359073E+01  2.247063982E+02  1.250000000E+02  0.00000E+00  9.000E+00
      25     1     1     2     0     0  2.042943511E+02 -3.476157931E+01 -2.216946672E+02  3.282043186E+02  1.250000000E+02  0.00000E+00  9.000E+00
       2     1     1     2   502     0 -4.700634796E+01 -5.347962337E+01 -4.440254518E+02  4.496979750E+02  7.629394531E-06  0.00000E+00  9.000E+00
#rwgt            1           1   4.2537232745704714E-002          26      259955           0
</event>
<event>
      5   9999  3.70600E-02  5.02458E+00 -1.00000E+00  2.38138E-01
      21    -1     0     0   502   501  0.000000000E+00  0.000000000E+00  6.980613287E+01  6.980613287E+01  0.000000000E+00  0.00000E+00  9.000E+00
      21    -1     0     0   501   511  0.000000000E+00  0.000000000E+00 -6.696285666E+02  6.696285666E+02  0.000000000E+00  0.00000E+00  9.000E+00
      25     1     1     2     0     0 -3.250517132E+01  9.052364757E+01 -4.052253202E+02  4.348375295E+02  1.250000000E+02  0.00000E+00  9.000E+00
      25     1     1     2     0     0  3.004135090E+01 -8.614460359E+01 -5.398992917E+01  1.639002378E+02  1.250000000E+02  0.00000E+00  9.000E+00
      21     1     1     2   502   511  2.463820425E+00 -4.379043982E+00 -1.406071843E+02  1.406969321E+02  2.697398305E-06  0.00000E+00  9.000E+00
#rwgt            1           1   3.6237276147741297E-002          26      260247           0
</event>
<event>
      5   9999  3.70600E-02  4.37406E+01 -1.00000E+00  1.42470E-01
      21    -1     0     0   502   501  0.000000000E+00  0.000000000E+00  8.005366253E+02  8.005366253E+02  0.000000000E+00  0.00000E+00  9.000E+00
      21    -1     0     0   512   502  0.000000000E+00  0.000000000E+00 -1.934679731E+02  1.934679731E+02  0.000000000E+00  0.00000E+00  9.000E+00
      25     1     1     2     0     0  4.833700079E+01  2.271449062E+01  9.167088344E+01  1.639541540E+02  1.250000000E+02  0.00000E+00  9.000E+00
      25     1     1     2     0     0 -8.126409495E+01 -5.150767330E+01  6.602017264E+02  6.787843642E+02  1.250000000E+02  0.00000E+00  9.000E+00
      21     1     1     2   512   501  3.292709416E+01  2.879318268E+01 -1.448039576E+02  1.512660802E+02  4.672030912E-06  0.00000E+00  9.000E+00
#rwgt            1           1   3.5212240060064841E-002          26      260919           0
</event>
<event>
      5   9999  3.70600E-02  2.07969E+01 -1.00000E+00  1.64978E-01
      21    -1     0     0   502   511  0.000000000E+00  0.000000000E+00  8.481445593E+02  8.481445593E+02  0.000000000E+00  0.00000E+00  9.000E+00
      21    -1     0     0   501   502  0.000000000E+00  0.000000000E+00 -3.382333208E+01  3.382333208E+01  0.000000000E+00  0.00000E+00  9.000E+00
      25     1     1     2     0     0 -1.469524061E+00  6.219928662E+01  2.004632507E+02  2.442978216E+02  1.250000000E+02  0.00000E+00  9.000E+00
      25     1     1     2     0     0  1.766036885E+01 -7.525178119E+01  4.736312988E+02  4.959095950E+02  1.250000000E+02  0.00000E+00  9.000E+00
      21     1     1     2   501   511 -1.619084479E+01  1.305249457E+01  1.402266778E+02  1.417604748E+02  0.000000000E+00  0.00000E+00  9.000E+00
#rwgt            1           1   2.3313582324368764E-002          26      261425           0
</event>
<event>
      5   9999  3.70600E-02  2.96094E+01 -1.00000E+00  1.53434E-01
      21    -1     0     0   512   501  0.000000000E+00  0.000000000E+00  3.705649714E+02  3.705649714E+02  0.000000000E+00  0.00000E+00  9.000E+00
      21    -1     0     0   501   502  0.000000000E+00  0.000000000E+00 -4.016616980E+02  4.016616980E+02  0.000000000E+00  0.00000E+00  9.000E+00
      25     1     1     2     0     0 -1.583931729E+02 -1.671779936E+02 -1.648947045E+02  3.095999715E+02  1.250000000E+02  0.00000E+00  9.000E+00
      25     1     1     2     0     0  1.353506199E+02  1.485834370E+02 -7.766119218E+01  2.491045741E+02  1.250000000E+02  0.00000E+00  9.000E+00
      21     1     1     2   512   502  2.304255298E+01  1.859455654E+01  2.114591700E+02  2.135221238E+02  0.000000000E+00  0.00000E+00  9.000E+00
#rwgt            1           1   3.4208500036139879E-002          26      261756           0
</event>
<event>
      5   9999 -3.70600E-02  3.74394E+01 -1.00000E+00  1.46642E-01
       2    -1     0     0   502     0  0.000000000E+00  0.000000000E+00  1.099400592E+03  1.099400592E+03  0.000000000E+00  0.00000E+00  9.000E+00
      21    -1     0     0   501   502  0.000000000E+00  0.000000000E+00 -2.432099989E+02  2.432099989E+02  0.000000000E+00  0.00000E+00  9.000E+00
      25     1     1     2     0     0  1.728795964E+02  6.805897448E+01 -4.057082654E+00  2.239661554E+02  1.250000000E+02  0.00000E+00  9.000E+00
      25     1     1     2     0     0 -2.103139023E+02 -6.743870468E+01 -3.776650182E+00  2.538093369E+02  1.250000000E+02  0.00000E+00  9.000E+00
       2     1     1     2   501     0  3.743430595E+01 -6.202698029E-01  8.640243263E+02  8.648350990E+02  0.000000000E+00  0.00000E+00  9.000E+00
#rwgt            1           1 -0.20383888024144006               26      262115           0
</event>
<event>
      5   9999  3.70600E-02  3.28009E+01 -1.00000E+00  1.50393E-01
      21    -1     0     0   511   501  0.000000000E+00  0.000000000E+00  5.393860351E+02  5.393860351E+02  0.000000000E+00  0.00000E+00  9.000E+00
      21    -1     0     0   501   502  0.000000000E+00  0.000000000E+00 -1.094097104E+02  1.094097104E+02  0.000000000E+00  0.00000E+00  9.000E+00
      25     1     1     2     0     0  1.057020292E+02 -9.164150709E+01  2.787565922E+02  3.360079203E+02  1.250000000E+02  0.00000E+00  9.000E+00
      25     1     1     2     0     0 -1.171662093E+02  6.090922518E+01  2.640998572E+01  1.837398750E+02  1.250000000E+02  0.00000E+00  9.000E+00
      21     1     1     2   511   502  1.146418003E+01  3.073228192E+01  1.248097468E+02  1.290479503E+02  0.000000000E+00  0.00000E+00  9.000E+00
#rwgt            1           1   3.4246415305158352E-002          26      262386           0
</event>
<event>
      5   9999  3.70600E-02  6.75773E+01 -1.00000E+00  1.31998E-01
      21    -1     0     0   502   501  0.000000000E+00  0.000000000E+00  5.451642782E+01  5.451642782E+01  0.000000000E+00  0.00000E+00  9.000E+00
      21    -1     0     0   512   502  0.000000000E+00  0.000000000E+00 -2.253437521E+03  2.253437521E+03  0.000000000E+00  0.00000E+00  9.000E+00
      25     1     1     2     0     0 -2.526654746E+01 -7.383291055E+01 -5.114171573E+02  5.322238306E+02  1.250000000E+02  0.00000E+00  9.000E+00
      25     1     1     2     0     0 -4.164217922E+01  6.435093954E+01 -8.043703304E+01  1.672430291E+02  1.250000000E+02  0.00000E+00  9.000E+00
      21     1     1     2   512   501  6.690872668E+01  9.481971015E+00 -1.607066903E+03  1.608487089E+03  2.157918644E-05  0.00000E+00  9.000E+00
#rwgt            2          11   4.5728013671343090E-004          26      262699           0
</event>
<event>
      5   9999 -3.70600E-02  6.28463E+01 -1.00000E+00  1.33634E-01
      21    -1     0     0   502   501  0.000000000E+00  0.000000000E+00  1.560916562E+03  1.560916562E+03  0.000000000E+00  0.00000E+00  9.000E+00
      21    -1     0     0   501   511  0.000000000E+00  0.000000000E+00 -7.636471687E+01  7.636471687E+01  0.000000000E+00  0.00000E+00  9.000E+00
      25     1     1     2     0     0  1.171234461E+00 -9.077978109E+00  1.221790981E+03  1.228202745E+03  1.250000000E+02  0.00000E+00  9.000E+00
      25     1     1     2     0     0  1.704388362E+01 -5.107073973E+01  3.045694609E+02  3.335959696E+02  1.250000000E+02  0.00000E+00  9.000E+00
      21     1     1     2   502   511 -1.821511808E+01  6.014871784E+01 -4.180859662E+01  7.548256445E+01  3.568322551E-06  0.00000E+00  9.000E+00
#rwgt            1           1  -4.7271766207009812E-002          26      262794           0
</event>
<event>
      5   9999  3.70600E-02  1.51352E+02 -1.00000E+00  1.16238E-01
      21    -1     0     0   512   501  0.000000000E+00  0.000000000E+00  5.686534927E+02  5.686534927E+02  0.000000000E+00  0.00000E+00  9.000E+00
      21    -1     0     0   501   502  0.000000000E+00  0.000000000E+00 -6.363092318E+02  6.363092318E+02  0.000000000E+00  0.00000E+00  9.000E+00
      25     1     1     2     0     0  4.033336600E+00  4.021810383E+02 -1.943402955E+02  4.638523534E+02  1.250000000E+02  0.00000E+00  9.000E+00
      25     1     1     2     0     0  1.364063150E+02 -4.586102840E+02 -6.291234781E+01  4.985108212E+02  1.250000000E+02  0.00000E+00  9.000E+00
      21     1     1     2   512   502 -1.404396516E+02  5.642924577E+01  1.895969042E+02  2.425995498E+02  0.000000000E+00  0.00000E+00  9.000E+00
#rwgt            1           1  0.16124245973447332               26      263120           0
</event>
<event>
      5   9999  3.70600E-02  1.58534E+01 -1.00000E+00  1.75146E-01
      21    -1     0     0   502   501  0.000000000E+00  0.000000000E+00  1.293120334E+02  1.293120334E+02  0.000000000E+00  0.00000E+00  9.000E+00
      21    -1     0     0   501   511  0.000000000E+00  0.000000000E+00 -3.879842474E+02  3.879842474E+02  0.000000000E+00  0.00000E+00  9.000E+00
      25     1     1     2     0     0 -1.482121497E+02 -5.320564868E+01 -4.787331392E+01  2.066749538E+02  1.250000000E+02  0.00000E+00  9.000E+00
      25     1     1     2     0     0  1.587324962E+02  6.506533430E+01 -1.973981966E+02  2.898629868E+02  1.250000000E+02  0.00000E+00  9.000E+00
      21     1     1     2   502   511 -1.052034655E+01 -1.185968563E+01 -1.340070347E+01  2.075834021E+01  2.920019320E-07  0.00000E+00  9.000E+00
#rwgt            1           1   3.6509215803290876E-002          26      263250           0
</event>
<event>
      5   9999  3.70600E-02  2.52648E+01 -1.00000E+00  1.58406E-01
      21    -1     0     0   502   501  0.000000000E+00  0.000000000E+00  5.053356864E+02  5.053356864E+02  0.000000000E+00  0.00000E+00  9.000E+00
      21    -1     0     0   501   512  0.000000000E+00  0.000000000E+00 -2.454874157E+02  2.454874157E+02  0.000000000E+00  0.00000E+00  9.000E+00
      25     1     1     2     0     0  1.272958623E+01  1.388921680E+02  3.710861555E+02  4.156717594E+02  1.250000000E+02  0.00000E+00  9.000E+00
      25     1     1     2     0     0  1.251351576E+01 -1.399379805E+02  3.108305151E+01  1.906053057E+02  1.250000000E+02  0.00000E+00  9.000E+00
      21     1     1     2   502   512 -2.524310199E+01  1.045812525E+00 -1.423209364E+02  1.445460371E+02  1.907348633E-06  0.00000E+00  9.000E+00
#rwgt            1           1   3.7294788577529624E-002          26      263755           0
</event>
<event>
      5   9999  3.70600E-02  5.39422E+01 -1.00000E+00  1.37219E-01
       3    -1     0     0   502     0  0.000000000E+00  0.000000000E+00  1.316660278E+03  1.316660278E+03  0.000000000E+00  0.00000E+00  9.000E+00
      21    -1     0     0   501   502  0.000000000E+00  0.000000000E+00 -4.245741892E+01  4.245741892E+01  0.000000000E+00  0.00000E+00  9.000E+00
      25     1     1     2     0     0 -1.706398055E+01  1.003249327E+02  1.583482063E+02  2.259544777E+02  1.250000000E+02  0.00000E+00  9.000E+00
      25     1     1     2     0     0  1.607680844E+01 -4.639181110E+01  6.197059821E+02  6.340908201E+02  1.250000000E+02  0.00000E+00  9.000E+00
       3     1     1     2   501     0  9.871721147E-01 -5.393312161E+01  4.961486702E+02  4.990723986E+02  7.629394531E-06  0.00000E+00  9.000E+00
#rwgt            1           1   4.3317839461925779E-002          26      264347           0
</event>
<event>
      5   9999  3.70600E-02  9.50953E+00 -1.00000E+00  1.98312E-01
      21    -1     0     0   502   511  0.000000000E+00  0.000000000E+00  5.141630435E+01  5.141630435E+01  0.000000000E+00  0.00000E+00  9.000E+00
      21    -1     0     0   501   502  0.000000000E+00  0.000000000E+00 -1.054951924E+03  1.054951924E+03  0.000000000E+00  0.00000E+00  9.000E+00
      25     1     1     2     0     0 -1.607701572E+02 -1.725621269E+01 -2.530125628E+02  3.252463332E+02  1.250000000E+02  0.00000E+00  9.000E+00
      25     1     1     2     0     0  1.526761590E+02  2.224804141E+01 -7.427636167E+02  7.688483434E+02  1.250000000E+02  0.00000E+00  9.000E+00
      21     1     1     2   501   511  8.093998225E+00 -4.991828722E+00 -7.759440221E+00  1.227355180E+01  2.230201594E-07  0.00000E+00  9.000E+00
#rwgt            1           1   4.2901152638347692E-002          26      264544           0
</event>
<event>
      5   9999  3.70600E-02  8.29279E+01 -1.00000E+00  1.27597E-01
      21    -1     0     0   502   512  0.000000000E+00  0.000000000E+00  1.709945218E+02  1.709945218E+02  0.000000000E+00  0.00000E+00  9.000E+00
      21    -1     0     0   501   502  0.000000000E+00  0.000000000E+00 -3.014348759E+02  3.014348759E+02  0.000000000E+00  0.00000E+00  9.000E+00
      25     1     1     2     0     0  4.449059420E+01 -5.162097096E+01 -1.304575114E+02  1.931017864E+02  1.250000000E+02  0.00000E+00  9.000E+00
      25     1     1     2     0     0 -1.024438786E+02  1.109375457E+02 -6.575770819E+00  1.961380332E+02  1.250000000E+02  0.00000E+00  9.000E+00
      21     1     1     2   501   512  5.795328440E+01 -5.931657477E+01  6.592928162E+00  8.318957817E+01  7.251217997E-07  0.00000E+00  9.000E+00
#rwgt            1           1   4.5765208002070033E-002          26      265024           0
</event>
<event>
      5   9999  3.70600E-02  4.66251E+01 -1.00000E+00  1.40827E-01
      21    -1     0     0   502   511  0.000000000E+00  0.000000000E+00  3.091296532E+02  3.091296532E+02  0.000000000E+00  0.00000E+00  9.000E+00
      21    -1     0     0   501   502  0.000000000E+00  0.000000000E+00 -2.085348884E+02  2.085348884E+02  0.000000000E+00  0.00000E+00  9.000E+00
      25     1     1     2     0     0  1.494068119E+02 -9.279540400E+01  4.532490231E+01  2.204829454E+02  1.250000000E+02  0.00000E+00  9.000E+00
      25     1     1     2     0     0 -1.927721170E+02  7.566781568E+01  2.888991938E+01  2.436110319E+02  1.250000000E+02  0.00000E+00  9.000E+00
      21     1     1     2   501   511  4.336530507E+01  1.712758832E+01  2.637994304E+01  5.357056431E+01  6.743495762E-07  0.00000E+00  9.000E+00
#rwgt            1           1  0.12509371105919775               26      265160           0
</event>
<event>
      5   9999  3.70600E-02  1.18881E+02 -1.00000E+00  1.20540E-01
      21    -1     0     0   502   501  0.000000000E+00  0.000000000E+00  1.170101174E+02  1.170101174E+02  0.000000000E+00  0.00000E+00  9.000E+00
      21    -1     0     0   512   502  0.000000000E+00  0.000000000E+00 -8.281120044E+02  8.281120044E+02  0.000000000E+00  0.00000E+00  9.000E+00
      25     1     1     2     0     0 -1.083038104E+02 -1.017152946E+02 -3.143650591E+02  3.694943935E+02  1.250000000E+02  0.00000E+00  9.000E+00
      25     1     1     2     0     0  2.218108403E+02  1.370543595E+02 -2.232026585E+02  3.652784870E+02  1.250000000E+02  0.00000E+00  9.000E+00
      21     1     1     2   512   501 -1.135070299E+02 -3.533906490E+01 -1.735341694E+02  2.103492413E+02  3.814697266E-06  0.00000E+00  9.000E+00
#rwgt            1           1   2.0595477514380719E-002          26      265990           0
</event>
<event>
      5   9999  3.70600E-02  8.59809E+01 -1.00000E+00  1.26850E-01
       2    -1     0     0   502     0  0.000000000E+00  0.000000000E+00  2.917808267E+03  2.917808267E+03  0.000000000E+00  0.00000E+00  9.000E+00
      21    -1     0     0   501   502  0.000000000E+00  0.000000000E+00 -4.274636107E+01  4.274636107E+01  0.000000000E+00  0.00000E+00  9.000E+00
      25     1     1     2     0     0 -1.114694113E+02 -1.528636053E+02  1.307762140E+03  1.327275226E+03  1.250000000E+02  0.00000E+00  9.000E+00
      25     1     1     2     0     0  3.659636245E+01  1.105937587E+02  1.990399611E+02  2.623207566E+02  1.250000000E+02  0.00000E+00  9.000E+00
       2     1     1     2   501     0  7.487304888E+01  4.226984663E+01  1.368259805E+03  1.370958645E+03  3.051757812E-05  0.00000E+00  9.000E+00
#rwgt            1           1   5.3233434914562706E-002          26      266166           0
</event>
<event>
      5   9999 -3.70600E-02  8.51670E+01 -1.00000E+00  1.27046E-01
       2    -1     0     0   502     0  0.000000000E+00  0.000000000E+00  1.967680794E+03  1.967680794E+03  0.000000000E+00  0.00000E+00  9.000E+00
      21    -1     0     0   501   502  0.000000000E+00  0.000000000E+00 -5.503985946E+02  5.503985946E+02  0.000000000E+00  0.00000E+00  9.000E+00
      25     1     1     2     0     0 -2.254940699E+02 -8.689926874E+01 -6.280496670E+01  2.792284411E+02  1.250000000E+02  0.00000E+00  9.000E+00
      25     1     1     2     0     0  1.586929978E+02  1.397295337E+02 -3.385233090E+02  4.182473442E+02  1.250000000E+02  0.00000E+00  9.000E+00
       2     1     1     2   501     0  6.680107213E+01 -5.283026494E+01  1.818610475E+03  1.820603603E+03  2.157918644E-05  0.00000E+00  9.000E+00
#rwgt            1           1  -7.2982503701043755E-002          26      266508           0
</event>
<event>
      5   9999  3.70600E-02  2.60205E+01 -1.00000E+00  1.57458E-01
      21    -1     0     0   502   501  0.000000000E+00  0.000000000E+00  6.097131452E+02  6.097131452E+02  0.000000000E+00  0.00000E+00  9.000E+00
      21    -1     0     0   501   511  0.000000000E+00  0.000000000E+00 -4.837826290E+02  4.837826290E+02  0.000000000E+00  0.00000E+00  9.000E+00
      25     1     1     2     0     0 -1.682675451E+02  9.997974936E+01  4.185485093E+02  4.786624820E+02  1.250000000E+02  0.00000E+00  9.000E+00
      25     1     1     2     0     0  1.938145711E+02 -1.049207344E+02  6.071367051E+01  2.605448105E+02  1.250000000E+02  0.00000E+00  9.000E+00
      21     1     1     2   502   511 -2.554702598E+01  4.940985016E+00 -3.533316636E+02  3.542884818E+02  0.000000000E+00  0.00000E+00  9.000E+00
#rwgt            1           1   2.1158931058874276E-002          26      266787           0
</event>
<event>
      5   9999  3.70600E-02  5.21117E+01 -1.00000E+00  1.38056E-01
      21    -1     0     0   502   512  0.000000000E+00  0.000000000E+00  3.511675181E+02  3.511675181E+02  0.000000000E+00  0.00000E+00  9.000E+00
      21    -1     0     0   501   502  0.000000000E+00  0.000000000E+00 -2.298707555E+02  2.298707555E+02  0.000000000E+00  0.00000E+00  9.000E+00
      25     1     1     2     0     0 -2.342868925E+01  2.775438000E+01  1.476287765E+02  1.968208951E+02  1.250000000E+02  0.00000E+00  9.000E+00
      25     1     1     2     0     0 -1.467760375E+01  7.791915402E+00 -1.812326641E+02  2.207859247E+02  1.250000000E+02  0.00000E+00  9.000E+00
      21     1     1     2   501   512  3.810629300E+01 -3.554629540E+01  1.549006502E+02  1.634314538E+02  2.697398305E-06  0.00000E+00  9.000E+00
#rwgt            1           1   4.2599670209767397E-002          26      267094           0
</event>
<event>
      5   9999  3.70600E-02  1.55773E+01 -1.00000E+00  1.75849E-01
      21    -1     0     0   502   511  0.000000000E+00  0.000000000E+00  2.503672659E+01  2.503672659E+01  0.000000000E+00  0.00000E+00  9.000E+00
      21    -1     0     0   501   502  0.000000000E+00  0.000000000E+00 -2.538766240E+03  2.538766240E+03  0.000000000E+00  0.00000E+00  9.000E+00
      25     1     1     2     0     0  1.125260185E+02 -3.166518932E+01 -2.042631742E+03  2.049788824E+03  1.250000000E+02  0.00000E+00  9.000E+00
      25     1     1     2     0     0 -1.278079831E+02  3.468388415E+01 -4.604278871E+02  4.951330039E+02  1.250000000E+02  0.00000E+00  9.000E+00
      21     1     1     2   501   511  1.528196459E+01 -3.018694832E+00 -1.066988367E+01  1.888113815E+01  8.172577143E-07  0.00000E+00  9.000E+00
#rwgt            1           1   5.9979174394553435E-002          26      267263           0
</event>
<event>
      5   9999 -3.70600E-02  3.36069E+01 -1.00000E+00  1.49690E-01
      21    -1     0     0   502   501  0.000000000E+00  0.000000000E+00  4.098774424E+02  4.098774424E+02  0.000000000E+00  0.00000E+00  9.000E+00
      -3    -1     0     0     0   502  0.000000000E+00  0.000000000E+00 -5.482531464E+02  5.482531464E+02  0.000000000E+00  0.00000E+00  9.000E+00
      25     1     1     2     0     0 -1.984482124E+01  2.566795760E+02 -1.332369127E+02  3.156822715E+02  1.250000000E+02  0.00000E+00  9.000E+00
      25     1     1     2     0     0  3.887989751E+01 -2.289832029E+02  2.628438991E+02  3.723665787E+02  1.250000000E+02  0.00000E+00  9.000E+00
      -3     1     1     2     0   501 -1.903507627E+01 -2.769637301E+01 -2.679826903E+02  2.700817386E+02  5.394796609E-06  0.00000E+00  9.000E+00
#rwgt            1           1  -5.0496077474812343E-002          26      268830           0
</event>
<event>
      5   9999  3.70600E-02  1.42593E+01 -1.00000E+00  1.79477E-01
      21    -1     0     0   502   501  0.000000000E+00  0.000000000E+00  2.390765215E+02  2.390765215E+02  0.000000000E+00  0.00000E+00  9.000E+00
       2    -1     0     0   501     0  0.000000000E+00  0.000000000E+00 -4.217489074E+02  4.217489074E+02  0.000000000E+00  0.00000E+00  9.000E+00
      25     1     1     2     0     0 -3.951876736E+01  1.223130071E+02 -7.603111285E+01  1.947509558E+02  1.250000000E+02  0.00000E+00  9.000E+00
      25     1     1     2     0     0  4.507804663E+01 -1.091820516E+02  1.383167497E+02  2.207017760E+02  1.250000000E+02  0.00000E+00  9.000E+00
       2     1     1     2   502     0 -5.559279270E+00 -1.313095556E+01 -2.449580227E+02  2.453726971E+02  2.697398305E-06  0.00000E+00  9.000E+00
#rwgt            1           1   2.9275510184659782E-002          26      269055           0
</event>
<event>
      5   9999  3.70600E-02  7.33532E+01 -1.00000E+00  1.30198E-01
      21    -1     0     0   502   511  0.000000000E+00  0.000000000E+00  7.091985904E+02  7.091985904E+02  0.000000000E+00  0.00000E+00  9.000E+00
      21    -1     0     0   501   502  0.000000000E+00  0.000000000E+00 -2.737845622E+02  2.737845622E+02  0.000000000E+00  0.00000E+00  9.000E+00
      25     1     1     2     0     0  6.001947625E+01 -1.727274842E+02 -7.687396657E+01  2.344605043E+02  1.250000000E+02  0.00000E+00  9.000E+00
      25     1     1     2     0     0 -6.907319851E+01  9.993511649E+01 -5.010501672E+01  1.813660579E+02  1.250000000E+02  0.00000E+00  9.000E+00
      21     1     1     2   501   511  9.053722252E+00  7.279236774E+01  5.623930115E+02  5.671565904E+02  0.000000000E+00  0.00000E+00  9.000E+00
#rwgt            1           1   4.1394707311988313E-002          26      269623           0
</event>
<event>
      5   9999  3.70600E-02  4.45826E+01 -1.00000E+00  1.41976E-01
      21    -1     0     0   502   501  0.000000000E+00  0.000000000E+00  9.235444798E+01  9.235444798E+01  0.000000000E+00  0.00000E+00  9.000E+00
      21    -1     0     0   512   502  0.000000000E+00  0.000000000E+00 -5.025208568E+02  5.025208568E+02  0.000000000E+00  0.00000E+00  9.000E+00
      25     1     1     2     0     0 -7.404629473E+01  1.503087548E+02 -2.152069654E+02  3.000243548E+02  1.250000000E+02  0.00000E+00  9.000E+00
      25     1     1     2     0     0  4.841326070E+01 -1.138319846E+02 -1.453437391E+02  2.281476869E+02  1.250000000E+02  0.00000E+00  9.000E+00
      21     1     1     2   512   501  2.563303403E+01 -3.647677011E+01 -4.961570441E+01  6.670326315E+01  9.536743164E-07  0.00000E+00  9.000E+00
#rwgt            1           1   3.6301495260381074E-002          26      269780           0
</event>
<event>
      5   9999  3.70600E-02  1.60510E+02 -1.00000E+00  1.15238E-01
      21    -1     0     0   511   501  0.000000000E+00  0.000000000E+00  5.261620777E+02  5.261620777E+02  0.000000000E+00  0.00000E+00  9.000E+00
      21    -1     0     0   501   502  0.000000000E+00  0.000000000E+00 -6.827739082E+02  6.827739082E+02  0.000000000E+00  0.00000E+00  9.000E+00
      25     1     1     2     0     0  9.423605743E+01  2.364649332E+02 -5.767664628E+02  6.427135068E+02  1.250000000E+02  0.00000E+00  9.000E+00
      25     1     1     2     0     0 -2.757218174E+01 -9.045352390E+01  5.290179351E+01  1.654257082E+02  1.250000000E+02  0.00000E+00  9.000E+00
      21     1     1     2   511   502 -6.666387569E+01 -1.460114093E+02  3.672528388E+02  4.007967709E+02  5.394796609E-06  0.00000E+00  9.000E+00
#rwgt            1           1   4.5324721039012458E-002          26      269916           0
</event>
<event>
      5   9999  3.70600E-02  4.04165E+01 -1.00000E+00  1.44559E-01
      21    -1     0     0   502   501  0.000000000E+00  0.000000000E+00  5.643924624E+01  5.643924624E+01  0.000000000E+00  0.00000E+00  9.000E+00
       2    -1     0     0   501     0  0.000000000E+00  0.000000000E+00 -1.075524765E+03  1.075524765E+03  0.000000000E+00  0.00000E+00  9.000E+00
      25     1     1     2     0     0  1.878410200E+01  1.755217583E+02 -4.456404795E+02  4.953596341E+02  1.250000000E+02  0.00000E+00  9.000E+00
      25     1     1     2     0     0 -5.892023247E+01 -1.802741368E+02 -4.151173278E+02  4.731994865E+02  1.250000000E+02  0.00000E+00  9.000E+00
       2     1     1     2   502     0  4.013613047E+01  4.752378481E+00 -1.583277117E+02  1.634048909E+02  0.000000000E+00  0.00000E+00  9.000E+00
#rwgt            1           1   4.1115061523745181E-002          26      270053           0
</event>
<event>
      5   9999  3.70600E-02  2.26961E+01 -1.00000E+00  1.61958E-01
      21    -1     0     0   502   511  0.000000000E+00  0.000000000E+00  5.486900605E+02  5.486900605E+02  0.000000000E+00  0.00000E+00  9.000E+00
      21    -1     0     0   501   502  0.000000000E+00  0.000000000E+00 -2.687118592E+02  2.687118592E+02  0.000000000E+00  0.00000E+00  9.000E+00
      25     1     1     2     0     0 -9.043431205E+01 -1.744146962E+01  5.963695747E+01  1.663253930E+02  1.250000000E+02  0.00000E+00  9.000E+00
      25     1     1     2     0     0  6.802040957E+01  2.100952409E+01 -1.909991085E+02  2.391105094E+02  1.250000000E+02  0.00000E+00  9.000E+00
      21     1     1     2   501   511  2.241390249E+01 -3.568054473E+00  4.113403524E+02  4.119660174E+02  5.394796609E-06  0.00000E+00  9.000E+00
#rwgt            1           1   4.8896378282658942E-002          26      270275           0
</event>
<event>
      5   9999  3.70600E-02  2.29735E+01 -1.00000E+00  1.61548E-01
      21    -1     0     0   502   501  0.000000000E+00  0.000000000E+00  3.822883672E+02  3.822883672E+02  0.000000000E+00  0.00000E+00  9.000E+00
      21    -1     0     0   501   512  0.000000000E+00  0.000000000E+00 -1.176759224E+02  1.176759224E+02  0.000000000E+00  0.00000E+00  9.000E+00
      25     1     1     2     0     0 -9.250357936E+01  8.182877956E+01  1.497993301E+02  2.309062595E+02  1.250000000E+02  0.00000E+00  9.000E+00
      25     1     1     2     0     0  9.068630797E+01 -1.047302506E+02  1.412545268E+02  2.340304963E+02  1.250000000E+02  0.00000E+00  9.000E+00
      21     1     1     2   502   512  1.817271383E+00  2.290147101E+01 -2.644141214E+01  3.502753382E+01  8.920806376E-07  0.00000E+00  9.000E+00
#rwgt            1           1  0.14873490954587479               26      270764           0
</event>
<event>
      5   9999  3.70600E-02  3.36852E+01 -1.00000E+00  1.49623E-01
      21    -1     0     0   502   511  0.000000000E+00  0.000000000E+00  1.369336161E+03  1.369336161E+03  0.000000000E+00  0.00000E+00  9.000E+00
      21    -1     0     0   501   502  0.000000000E+00  0.000000000E+00 -5.743203227E+01  5.743203227E+01  0.000000000E+00  0.00000E+00  9.000E+00
      25     1     1     2     0     0 -1.358320488E+02  1.767502647E+02  7.079814225E+02  7.526976127E+02  1.250000000E+02  0.00000E+00  9.000E+00
      25     1     1     2     0     0  1.170526493E+02 -1.487855066E+02  3.445941511E+02  4.125634238E+02  1.250000000E+02  0.00000E+00  9.000E+00
      21     1     1     2   501   511  1.877939951E+01 -2.796475809E+01  2.593285552E+02  2.615071569E+02  0.000000000E+00  0.00000E+00  9.000E+00
#rwgt            1           1   2.1336242632664922E-002          26      271105           0
</event>
<event>
      5   9999  3.70600E-02  4.61845E+01 -1.00000E+00  1.41069E-01
      21    -1     0     0   502   501  0.000000000E+00  0.000000000E+00  5.519884528E+02  5.519884528E+02  0.000000000E+00  0.00000E+00  9.000E+00
      21    -1     0     0   501   512  0.000000000E+00  0.000000000E+00 -1.086742614E+02  1.086742614E+02  0.000000000E+00  0.00000E+00  9.000E+00
      25     1     1     2     0     0  1.128916007E+02  7.050949881E+01  3.630444659E+02  4.063771489E+02  1.250000000E+02  0.00000E+00  9.000E+00
      25     1     1     2     0     0 -1.448409943E+02 -3.715918197E+01  6.074731651E+01  2.041444461E+02  1.250000000E+02  0.00000E+00  9.000E+00
      21     1     1     2   502   512  3.194939354E+01 -3.335031684E+01  1.952240894E+01  5.014111917E+01  1.039242493E-06  0.00000E+00  9.000E+00
#rwgt            1           1   5.2127714425794093E-002          26      271820           0
</event>
<event>
      5   9999  3.70600E-02  2.43917E+01 -1.00000E+00  1.59554E-01
      21    -1     0     0   502   501  0.000000000E+00  0.000000000E+00  2.479369183E+03  2.479369183E+03  0.000000000E+00  0.00000E+00  9.000E+00
      21    -1     0     0   511   502  0.000000000E+00  0.000000000E+00 -1.545754085E+01  1.545754085E+01  0.000000000E+00  0.00000E+00  9.000E+00
      25     1     1     2     0     0  3.121826310E+01  7.170016085E+01  5.654328768E+02  5.843413653E+02  1.250000000E+02  0.00000E+00  9.000E+00
      25     1     1     2     0     0 -8.835449858E+00 -6.200674476E+01  1.857804267E+03  1.863057862E+03  1.250000000E+02  0.00000E+00  9.000E+00
      21     1     1     2   511   501 -2.238281324E+01 -9.693416091E+00  4.067449846E+01  4.742749697E+01  1.261592536E-06  0.00000E+00  9.000E+00
#rwgt            1           1   8.8366910136563420E-002          26      272003           0
</event>
<event>
      5   9999  3.70600E-02  1.31975E+02 -1.00000E+00  1.18639E-01
      21    -1     0     0   502   501  0.000000000E+00  0.000000000E+00  1.385758812E+03  1.385758812E+03  0.000000000E+00  0.00000E+00  9.000E+00
       2    -1     0     0   501     0  0.000000000E+00  0.000000000E+00 -7.383989195E+02  7.383989195E+02  0.000000000E+00  0.00000E+00  9.000E+00
      25     1     1     2     0     0 -1.447118108E+02 -3.416213762E+02  6.936651426E+02  7.965193048E+02  1.250000000E+02  0.00000E+00  9.000E+00
      25     1     1     2     0     0  2.708846472E+02  3.803235269E+02  5.411168477E+02  7.255735111E+02  1.250000000E+02  0.00000E+00  9.000E+00
       2     1     1     2   502     0 -1.261728364E+02 -3.870215070E+01 -5.874220980E+02  6.020649154E+02  1.078959322E-05  0.00000E+00  9.000E+00
#rwgt            1           1  0.14963116340869537               26      272288           0
</event>
<event>
      5   9999  3.70600E-02  2.25154E+01 -1.00000E+00  1.62230E-01
      21    -1     0     0   502   501  0.000000000E+00  0.000000000E+00  1.753526178E+03  1.753526178E+03  0.000000000E+00  0.00000E+00  9.000E+00
      21    -1     0     0   511   502  0.000000000E+00  0.000000000E+00 -2.694814277E+01  2.694814277E+01  0.000000000E+00  0.00000E+00  9.000E+00
      25     1     1     2     0     0  7.027068842E+01  7.924424097E+01  4.538898564E+02  4.825542675E+02  1.250000000E+02  0.00000E+00  9.000E+00
      25     1     1     2     0     0 -8.791295101E+01 -6.525517628E+01  1.262183553E+03  1.273074721E+03  1.250000000E+02  0.00000E+00  9.000E+00
      21     1     1     2   511   501  1.764226259E+01 -1.398906469E+01  1.050462630E+01  2.484533224E+01  1.250277577E-06  0.00000E+00  9.000E+00
#rwgt            1           1  0.15718199515771047               26      273386           0
</event>
<event>
      5   9999  3.70600E-02  3.71394E+01 -1.00000E+00  1.46865E-01
      21    -1     0     0   502   501  0.000000000E+00  0.000000000E+00  1.547970268E+03  1.547970268E+03  0.000000000E+00  0.00000E+00  9.000E+00
      21    -1     0     0   512   502  0.000000000E+00  0.000000000E+00 -4.746229641E+01  4.746229641E+01  0.000000000E+00  0.00000E+00  9.000E+00
      25     1     1     2     0     0  8.704830686E+01 -1.152216622E+02  1.054067020E+03  1.071230938E+03  1.250000000E+02  0.00000E+00  9.000E+00
      25     1     1     2     0     0 -8.477302202E+01  1.522913256E+02  4.355510973E+02  4.854985803E+02  1.250000000E+02  0.00000E+00  9.000E+00
      21     1     1     2   512   501 -2.275284845E+00 -3.706966341E+01  1.088985408E+01  3.870304624E+01  7.052516679E-07  0.00000E+00  9.000E+00
#rwgt            1           1  0.36733148009775962               26      273702           0
</event>
<event>
      5   9999  3.70600E-02  4.19341E+01 -1.00000E+00  1.43577E-01
      21    -1     0     0   502   501  0.000000000E+00  0.000000000E+00  3.893120823E+02  3.893120823E+02  0.000000000E+00  0.00000E+00  9.000E+00
      21    -1     0     0   511   502  0.000000000E+00  0.000000000E+00 -1.813002644E+03  1.813002644E+03  0.000000000E+00  0.00000E+00  9.000E+00
      25     1     1     2     0     0  6.753199347E+01  1.000661732E+02  9.283456577E+01  1.970204704E+02  1.250000000E+02  0.00000E+00  9.000E+00
      25     1     1     2     0     0 -9.503543911E+01 -6.841138152E+01  2.140884055E+02  2.741727506E+02  1.250000000E+02  0.00000E+00  9.000E+00
      21     1     1     2   511   501  2.750344565E+01 -3.165479169E+01 -1.730613533E+03  1.731121505E+03  2.157918644E-05  0.00000E+00  9.000E+00
#rwgt            1           1   3.4834522287261589E-002          26      274091           0
</event>
<event>
      5   9999 -3.70600E-02  1.96492E+01 -1.00000E+00  1.67002E-01
      21    -1     0     0   502   501  0.000000000E+00  0.000000000E+00  7.482398974E+01  7.482398974E+01  0.000000000E+00  0.00000E+00  9.000E+00
      21    -1     0     0   512   502  0.000000000E+00  0.000000000E+00 -9.462300135E+02  9.462300135E+02  0.000000000E+00  0.00000E+00  9.000E+00
      25     1     1     2     0     0 -1.986999754E+02  6.669826474E+01 -4.566141331E+02  5.177371971E+02  1.250000000E+02  0.00000E+00  9.000E+00
      25     1     1     2     0     0  2.103462292E+02 -5.087248569E+01 -3.174991105E+02  4.040596876E+02  1.250000000E+02  0.00000E+00  9.000E+00
      21     1     1     2   512   501 -1.164625385E+01 -1.582577905E+01 -9.729278019E+01  9.925711858E+01  0.000000000E+00  0.00000E+00  9.000E+00
#rwgt            1           1  -5.0450420660610812E-002          26      274272           0
</event>
<event>
      5   9999  3.70600E-02  6.99919E+01 -1.00000E+00  1.31221E-01
      21    -1     0     0   511   501  0.000000000E+00  0.000000000E+00  4.678234517E+02  4.678234517E+02  0.000000000E+00  0.00000E+00  9.000E+00
      21    -1     0     0   501   502  0.000000000E+00  0.000000000E+00 -1.000323672E+02  1.000323672E+02  0.000000000E+00  0.00000E+00  9.000E+00
      25     1     1     2     0     0  4.393077668E+01 -1.062440449E+01 -5.414048003E+00  1.330304590E+02  1.250000000E+02  0.00000E+00  9.000E+00
      25     1     1     2     0     0 -1.000376922E+01  7.184386147E+01  3.029449561E+02  3.356519958E+02  1.250000000E+02  0.00000E+00  9.000E+00
      21     1     1     2   511   502 -3.392700746E+01 -6.121945698E+01  7.026017639E+01  9.917336404E+01  9.536743164E-07  0.00000E+00  9.000E+00
#rwgt            1           1   4.4876821673736807E-002          26      274695           0
</event>
<event>
      5   9999  3.70600E-02  3.52320E+01 -1.00000E+00  1.48341E-01
      21    -1     0     0   502   501  0.000000000E+00  0.000000000E+00  3.729756329E+02  3.729756329E+02  0.000000000E+00  0.00000E+00  9.000E+00
      21    -1     0     0   501   512  0.000000000E+00  0.000000000E+00 -3.217588707E+02  3.217588707E+02  0.000000000E+00  0.00000E+00  9.000E+00
      25     1     1     2     0     0 -3.034910656E+01  2.057454481E+01 -2.604048833E+02  2.911701966E+02  1.250000000E+02  0.00000E+00  9.000E+00
      25     1     1     2     0     0  5.990085664E+01 -1.391620788E+00  3.341391253E+02  3.617513017E+02  1.250000000E+02  0.00000E+00  9.000E+00
      21     1     1     2   502   512 -2.955175007E+01 -1.918292402E+01 -2.251747980E+01  4.181300519E+01  2.384185791E-07  0.00000E+00  9.000E+00
#rwgt            1           1   3.8611918612705382E-002          26      275327           0
</event>
<event>
      5   9999  3.70600E-02  1.91457E+01 -1.00000E+00  1.67945E-01
      21    -1     0     0   511   501  0.000000000E+00  0.000000000E+00  6.208767956E+02  6.208767956E+02  0.000000000E+00  0.00000E+00  9.000E+00
      21    -1     0     0   501   502  0.000000000E+00  0.000000000E+00 -1.707892264E+02  1.707892264E+02  0.000000000E+00  0.00000E+00  9.000E+00
      25     1     1     2     0     0 -9.459642960E+00 -1.235314799E+01 -8.071349180E+01  1.496053237E+02  1.250000000E+02  0.00000E+00  9.000E+00
      25     1     1     2     0     0  1.539176420E+01  3.055667086E+01  2.027324653E+01  1.311740106E+02  1.250000000E+02  0.00000E+00  9.000E+00
      21     1     1     2   511   502 -5.932121235E+00 -1.820352288E+01  5.105278145E+02  5.108866877E+02  5.394796609E-06  0.00000E+00  9.000E+00
#rwgt            1           1   2.8562269405935009E-002          26      275663           0
</event>
<event>
      5   9999  3.70600E-02  2.85133E+01 -1.00000E+00  1.54586E-01
