<LesHouchesEvents version="3.0">
<header>
<!--
#*********************************************************************
#                                                                    *
#                        MadGraph5_aMC@NLO                           *
#                                                                    *
#                           Going Beyond                             *
#                                                                    *
#                   http://madgraph.hep.uiuc.edu                     *
#                   http://madgraph.phys.ucl.ac.be                   *
#                   http://amcatnlo.cern.ch                          *
#                                                                    *
#                     The MadGraph5_aMC@NLO team                     *
#                                                                    *
#....................................................................*
#                                                                    *
# This file contains all the information necessary to reproduce      *
# the events generated:                                              *
#                                                                    *
# 1. software version                                                *
# 2. proc_card          : code generation info including model       *
# 3. param_card         : model primary parameters in the LH format  *
# 4. run_card           : running parameters (collider and cuts)     *
# 5. pythia_card        : present only if pythia has been run        *
# 6. pgs_card           : present only if pgs has been run           *
# 7. delphes_cards      : present only if delphes has been run       *
#                                                                    *
#                                                                    *
#*********************************************************************
-->
<MGVersion>
#2.5.1
</MGVersion>
<MG5ProcCard>
#************************************************************
#*                     MadGraph5_aMC@NLO                    *
#*                                                          *
#*                *                       *                 *
#*                  *        * *        *                   *
#*                    * * * * 5 * * * *                     *
#*                  *        * *        *                   *
#*                *                       *                 *
#*                                                          *
#*                                                          *
#*         VERSION 2.5.1                 2016-11-04         *
#*                                                          *
#*    The MadGraph5_aMC@NLO Development Team - Find us at   *
#*    https://server06.fynu.ucl.ac.be/projects/madgraph     *
#*                                                          *
#************************************************************
#*                                                          *
#*               Command File for MadGraph5_aMC@NLO         *
#*                                                          *
#*     run as ./bin/mg5_aMC  filename                       *
#*                                                          *
#************************************************************
set group_subprocesses Auto
set ignore_six_quark_processes False
set loop_optimized_output True
set low_mem_multicore_nlo_generation False
set loop_color_flows False
set gauge unitary
set complex_mass_scheme False
set max_npoint_for_channel 0
import model sm
define p = g u c d s u~ c~ d~ s~
define j = g u c d s u~ c~ d~ s~
define l+ = e+ mu+
define l- = e- mu-
define vl = ve vm vt
define vl~ = ve~ vm~ vt~
import model sm-no_b_mass
define p = 21 2 4 1 3 -2 -4 -1 -3 5 -5 # pass to 5 flavors
define j = p
generate p p > z
add process p p > z j
add process p p > z j j
output pp_z012j_5f
</MG5ProcCard>
<MGProcCard>
#*********************************************************************
#                        MadGraph/MadEvent                           *
#                   http://madgraph.hep.uiuc.edu                     *
#                                                                    *
#                          proc_card.dat                             *
#*********************************************************************
#                                                                    *
#            This Files is generated by MADGRAPH 5                   *
#                                                                    *
# WARNING: This Files is generated for MADEVENT (compatibility issue)*
#          This files is NOT a valid MG4 proc_card.dat               *
#          Running this in MG4 will NEVER reproduce the result of MG5*
#                                                                    *
#*********************************************************************
#*********************************************************************
# Process(es) requested : mg2 input                                  *
#*********************************************************************
# Begin PROCESS # This is TAG. Do not modify this line
p p > z           #Process
# Be carefull the coupling are here in MG5 convention
          
end_coup           # End the couplings input

done               # this tells MG there are no more procs
# End PROCESS  # This is TAG. Do not modify this line
#*********************************************************************
# Model information                                                  *
#*********************************************************************
# Begin MODEL  # This is TAG. Do not modify this line
sm-no_b_mass
# End   MODEL  # This is TAG. Do not modify this line
#*********************************************************************
# Start multiparticle definitions                                    *
#*********************************************************************
# Begin MULTIPARTICLES # This is TAG. Do not modify this line

# End  MULTIPARTICLES # This is TAG. Do not modify this line
</MGProcCard>
<MGRunCard>
#*********************************************************************
#                       MadGraph5_aMC@NLO                            *
#                                                                    *
#                     run_card.dat MadEvent                          *
#                                                                    *
#  This file is used to set the parameters of the run.               *
#                                                                    *
#  Some notation/conventions:                                        *
#                                                                    *
#   Lines starting with a '# ' are info or comments                  *
#                                                                    *
#   mind the format:   value    = variable     ! comment             *
#*********************************************************************
#
#*******************                                                 
# Running parameters
#*******************                                                 
#                                                                    
#*********************************************************************
# Tag name for the run (one word)                                    *
#*********************************************************************
  tag_1     = run_tag ! name of the run 
#*********************************************************************
# Number of events and rnd seed                                      *
# Warning: Do not generate more than 1M events in a single run       *
# If you want to run Pythia, avoid more than 50k events in a run.    *
#*********************************************************************
  100 = nevents ! Number of unweighted events requested 
 1 = iseed   ! rnd seed (0=assigned automatically=default))
#*********************************************************************
# Collider type and energy                                           *
# lpp: 0=No PDF, 1=proton, -1=antiproton, 2=photon from proton,      *
#                                         3=photon from electron     *
#*********************************************************************
     1        = lpp1    ! beam 1 type 
     1        = lpp2    ! beam 2 type
     50000.0     = ebeam1  ! beam 1 total energy in GeV
     50000.0     = ebeam2  ! beam 2 total energy in GeV
#*********************************************************************
# Beam polarization from -100 (left-handed) to 100 (right-handed)    *
#*********************************************************************
     0.0     = polbeam1 ! beam polarization for beam 1
     0.0     = polbeam2 ! beam polarization for beam 2
#*********************************************************************
# PDF CHOICE: this automatically fixes also alpha_s and its evol.    *
#*********************************************************************
     lhapdf    = pdlabel     ! PDF set                                     
     292200    = lhaid     ! if pdlabel=lhapdf, this is the lhapdf number
#*********************************************************************
# Renormalization and factorization scales                           *
#*********************************************************************
 False = fixed_ren_scale  ! if .true. use fixed ren scale
 False = fixed_fac_scale  ! if .true. use fixed fac scale
 91.188  = scale            ! fixed ren scale
 91.188  = dsqrt_q2fact1    ! fixed fact scale for pdf1
 91.188  = dsqrt_q2fact2    ! fixed fact scale for pdf2
 -1 = dynamical_scale_choice ! Choose one of the preselected dynamical choices
 1.0  = scalefact        ! scale factor for event-by-event scales
#*********************************************************************
# Type and output format
#*********************************************************************
  True  = gridpack  !True = setting up the grid pack
  -1.0 = time_of_flight ! threshold (in mm) below which the invariant livetime is not written (-1 means not written)
  3.0 = lhe_version       ! Change the way clustering information pass to shower.        
  True = clusinfo         ! include clustering tag in output
  average =  event_norm       ! average/sum. Normalization of the weight in the LHEF

#*********************************************************************
# Matching parameter (MLM only)
#*********************************************************************
 1 = ickkw            ! 0 no matching, 1 MLM
 1.0 = alpsfact         ! scale factor for QCD emission vx
 False = chcluster        ! cluster only according to channel diag
 5 = asrwgtflavor     ! highest quark flavor for a_s reweight
 False  = auto_ptj_mjj  ! Automatic setting of ptj and mjj if xqcut >0
                                   ! (turn off for VBF and single top processes) 
 10.0   = xqcut   ! minimum kt jet measure between partons
#*********************************************************************
#
#*********************************************************************
# handling of the helicities:
#  0: sum over all helicities
#  1: importance sampling over helicities
#*********************************************************************
   0  = nhel          ! using helicities importance sampling or not.
#*********************************************************************
# Generation bias, check the wiki page below for more information:   *
#  'cp3.irmp.ucl.ac.be/projects/madgraph/wiki/LOEventGenerationBias' *
#*********************************************************************
 None = bias_module  ! Bias type of bias, [None, ptj_bias, -custom_folder-]
 {} = bias_parameters ! Specifies the parameters of the module.
#
#*******************************                                                 
# Parton level cuts definition *
#*******************************                                     
#                                                                    
#
#*********************************************************************
# BW cutoff (M+/-bwcutoff*Gamma) ! Define on/off-shell for "$" and decay  
#*********************************************************************
  30.0  = bwcutoff      ! (M+/-bwcutoff*Gamma)
#*********************************************************************
# Apply pt/E/eta/dr/mij/kt_durham cuts on decay products or not
# (note that etmiss/ptll/ptheavy/ht/sorted cuts always apply)
#*********************************************************************
   False  = cut_decays    ! Cut decay products 
#*********************************************************************
# Standard Cuts                                                      *
#*********************************************************************
# Minimum and maximum pt's (for max, -1 means no cut)                *
#*********************************************************************
 5.0  = ptj       ! minimum pt for the jets 
 5.0  = ptb       ! minimum pt for the b 
 5.0  = pta       ! minimum pt for the photons 
 5.0  = ptl       ! minimum pt for the charged leptons 
 0.0  = misset    ! minimum missing Et (sum of neutrino's momenta)
 0.0  = ptheavy   ! minimum pt for one heavy final state
 -1.0  = ptjmax    ! maximum pt for the jets
 -1.0  = ptbmax    ! maximum pt for the b
 -1.0  = ptamax    ! maximum pt for the photons
 -1.0  = ptlmax    ! maximum pt for the charged leptons
 -1.0  = missetmax ! maximum missing Et (sum of neutrino's momenta)
#*********************************************************************
# Minimum and maximum E's (in the center of mass frame)              *
#*********************************************************************
  0.0  = ej     ! minimum E for the jets 
  0.0  = eb     ! minimum E for the b 
  0.0  = ea     ! minimum E for the photons 
  0.0  = el     ! minimum E for the charged leptons 
  -1.0   = ejmax ! maximum E for the jets
 -1.0   = ebmax ! maximum E for the b
 -1.0   = eamax ! maximum E for the photons
 -1.0   = elmax ! maximum E for the charged leptons
#*********************************************************************
# Maximum and minimum absolute rapidity (for max, -1 means no cut)   *
#*********************************************************************
 8.0 = etaj    ! max rap for the jets 
 8.0 = etab    ! max rap for the b
 8.0 = etaa    ! max rap for the photons 
 8.0 = etal    ! max rap for the charged leptons 
 0.0 = etajmin ! min rap for the jets
 0.0 = etabmin ! min rap for the b
 0.0 = etaamin ! min rap for the photons
 0.0 = etalmin ! main rap for the charged leptons
#*********************************************************************
# Minimum and maximum DeltaR distance                                *
#*********************************************************************
 0.001 = drjj    ! min distance between jets 
 0.001 = drbb    ! min distance between b's 
 0.001 = drll    ! min distance between leptons 
 0.001 = draa    ! min distance between gammas 
 0.001 = drbj    ! min distance between b and jet 
 0.001 = draj    ! min distance between gamma and jet 
 0.001 = drjl    ! min distance between jet and lepton 
 0.001 = drab    ! min distance between gamma and b 
 0.001 = drbl    ! min distance between b and lepton 
 0.001 = dral    ! min distance between gamma and lepton 
 -1.0  = drjjmax ! max distance between jets
 -1.0  = drbbmax ! max distance between b's
 -1.0  = drllmax ! max distance between leptons
 -1.0  = draamax ! max distance between gammas
 -1.0  = drbjmax ! max distance between b and jet
 -1.0  = drajmax ! max distance between gamma and jet
 -1.0  = drjlmax ! max distance between jet and lepton
 -1.0  = drabmax ! max distance between gamma and b
 -1.0  = drblmax ! max distance between b and lepton
 -1.0  = dralmax ! maxdistance between gamma and lepton
#*********************************************************************
# Minimum and maximum invariant mass for pairs                       *
# WARNING: for four lepton final state mmll cut require to have      *
#          different lepton masses for each flavor!                  *           
#*********************************************************************
 0.0   = mmjj    ! min invariant mass of a jet pair 
 0.0   = mmbb    ! min invariant mass of a b pair 
 0.0   = mmaa    ! min invariant mass of gamma gamma pair
 20.0  = mmll    ! min invariant mass of l+l- (same flavour) lepton pair
 -1.0  = mmjjmax ! max invariant mass of a jet pair
 -1.0  = mmbbmax ! max invariant mass of a b pair
 -1.0  = mmaamax ! max invariant mass of gamma gamma pair
 -1.0  = mmllmax ! max invariant mass of l+l- (same flavour) lepton pair
#*********************************************************************
# Minimum and maximum invariant mass for all letpons                 *
#*********************************************************************
 0.0   = mmnl    ! min invariant mass for all letpons (l+- and vl) 
 -1.0  = mmnlmax ! max invariant mass for all letpons (l+- and vl) 
#*********************************************************************
# Minimum and maximum pt for 4-momenta sum of leptons                *
#*********************************************************************
 0.0   = ptllmin  ! Minimum pt for 4-momenta sum of leptons(l and vl)
 -1.0  = ptllmax  ! Maximum pt for 4-momenta sum of leptons(l and vl)
#*********************************************************************
# Inclusive cuts                                                     *
#*********************************************************************
 0.0  = xptj ! minimum pt for at least one jet  
 0.0  = xptb ! minimum pt for at least one b 
 0.0  = xpta ! minimum pt for at least one photon 
 0.0  = xptl ! minimum pt for at least one charged lepton 
#*********************************************************************
# Control the pt's of the jets sorted by pt                          *
#*********************************************************************
 0.0   = ptj1min ! minimum pt for the leading jet in pt
 0.0   = ptj2min ! minimum pt for the second jet in pt
 0.0   = ptj3min ! minimum pt for the third jet in pt
 0.0   = ptj4min ! minimum pt for the fourth jet in pt
 -1.0  = ptj1max ! maximum pt for the leading jet in pt 
 -1.0  = ptj2max ! maximum pt for the second jet in pt
 -1.0  = ptj3max ! maximum pt for the third jet in pt
 -1.0  = ptj4max ! maximum pt for the fourth jet in pt
 0   = cutuse  ! reject event if fails any (0) / all (1) jet pt cuts
#*********************************************************************
# Control the pt's of leptons sorted by pt                           *
#*********************************************************************
 0.0   = ptl1min ! minimum pt for the leading lepton in pt
 0.0   = ptl2min ! minimum pt for the second lepton in pt
 0.0   = ptl3min ! minimum pt for the third lepton in pt
 0.0   = ptl4min ! minimum pt for the fourth lepton in pt
 -1.0  = ptl1max ! maximum pt for the leading lepton in pt 
 -1.0  = ptl2max ! maximum pt for the second lepton in pt
 -1.0  = ptl3max ! maximum pt for the third lepton in pt
 -1.0  = ptl4max ! maximum pt for the fourth lepton in pt
#*********************************************************************
# Control the Ht(k)=Sum of k leading jets                            *
#*********************************************************************
 0.0   = htjmin ! minimum jet HT=Sum(jet pt)
 -1.0  = htjmax ! maximum jet HT=Sum(jet pt)
 0.0   = ihtmin  !inclusive Ht for all partons (including b)
 -1.0  = ihtmax  !inclusive Ht for all partons (including b)
 0.0   = ht2min ! minimum Ht for the two leading jets
 0.0   = ht3min ! minimum Ht for the three leading jets
 0.0   = ht4min ! minimum Ht for the four leading jets
 -1.0  = ht2max ! maximum Ht for the two leading jets
 -1.0  = ht3max ! maximum Ht for the three leading jets
 -1.0  = ht4max ! maximum Ht for the four leading jets
#***********************************************************************
# Photon-isolation cuts, according to hep-ph/9801442                   *
# When ptgmin=0, all the other parameters are ignored                  *
# When ptgmin>0, pta and draj are not going to be used                 *
#***********************************************************************
 0.0 = ptgmin ! Min photon transverse momentum
 0.4 = R0gamma ! Radius of isolation code
 1.0 = xn ! n parameter of eq.(3.4) in hep-ph/9801442
 1.0 = epsgamma ! epsilon_gamma parameter of eq.(3.4) in hep-ph/9801442
 True = isoEM ! isolate photons from EM energy (photons and leptons)
#*********************************************************************
# WBF cuts                                                           *
#*********************************************************************
 0.0   = xetamin ! minimum rapidity for two jets in the WBF case  
 0.0   = deltaeta ! minimum rapidity for two jets in the WBF case 
#***********************************************************************
# Turn on either the ktdurham or ptlund cut to activate                *
# CKKW(L) merging with Pythia8 [arXiv:1410.3012, arXiv:1109.4829]      *
#***********************************************************************
 -1.0  =  ktdurham        
 0.4   =  dparameter
 -1.0  =  ptlund
 1, 2, 3, 4, 5, 6, 21  =  pdgs_for_merging_cut ! PDGs for two cuts above   
#*********************************************************************
# maximal pdg code for quark to be considered as a light jet         *
# (otherwise b cuts are applied)                                     *
#*********************************************************************
 5 = maxjetflavor    ! Maximum jet pdg code
#*********************************************************************
#
#*********************************************************************
# Store info for systematics studies                                 *
# WARNING: Do not use for interference type of computation           *
#*********************************************************************
 False = use_syst      ! Enable systematics studies
#
#**************************************
# Parameter of the systematics study
#  will be used by SysCalc (if installed)
#**************************************                                  
#
0.5 1 2 = sys_scalefact  # factorization/renormalization scale factor
0.5 1 2 = sys_alpsfact  # \alpha_s emission scale factors
auto = sys_matchscale # variation of merging scale
# PDF sets and number of members (0 or none for all members).
NNPDF23_lo_as_0130_qed = sys_pdf # separate by && if more than one set.
# MSTW2008nlo68cl.LHgrid 1  = sys_pdf
#
</MGRunCard>
<slha>
######################################################################
## PARAM_CARD AUTOMATICALY GENERATED BY MG5 FOLLOWING UFO MODEL   ####
######################################################################
##                                                                  ##
##  Width set on Auto will be computed following the information    ##
##        present in the decay.py files of the model.               ##
##        See  arXiv:1402.1178 for more details.                    ##
##                                                                  ##
######################################################################

###################################
## INFORMATION FOR MASS
###################################
Block mass 
    6 1.730000e+02 # MT 
   15 1.777000e+00 # MTA 
   23 9.118800e+01 # MZ 
   25 1.250000e+02 # MH 
## Dependent parameters, given by model restrictions.
## Those values should be edited following the 
## analytical expression. MG5 ignores those values 
## but they are important for interfacing the output of MG5
## to external program such as Pythia.
  1 0.000000 # d : 0.0 
  2 0.000000 # u : 0.0 
  3 0.000000 # s : 0.0 
  4 0.000000 # c : 0.0 
  5 0.000000 # b : 0.0 
  11 0.000000 # e- : 0.0 
  12 0.000000 # ve : 0.0 
  13 0.000000 # mu- : 0.0 
  14 0.000000 # vm : 0.0 
  16 0.000000 # vt : 0.0 
  21 0.000000 # g : 0.0 
  22 0.000000 # a : 0.0 
  24 80.419002 # w+ : cmath.sqrt(MZ__exp__2/2. + cmath.sqrt(MZ__exp__4/4. - (aEW*cmath.pi*MZ__exp__2)/(Gf*sqrt__2))) 

###################################
## INFORMATION FOR SMINPUTS
###################################
Block sminputs 
    1 1.325070e+02 # aEWM1 
    2 1.166390e-05 # Gf 
    3 1.180000e-01 # aS 

###################################
## INFORMATION FOR YUKAWA
###################################
Block yukawa 
    6 1.730000e+02 # ymt 
   15 1.777000e+00 # ymtau 

###################################
## INFORMATION FOR DECAY
###################################
DECAY   6 1.491500e+00 # WT 
DECAY  23 2.441404e+00 # WZ 
DECAY  24 2.047600e+00 # WW 
DECAY  25 6.382339e-03 # WH 
## Dependent parameters, given by model restrictions.
## Those values should be edited following the 
## analytical expression. MG5 ignores those values 
## but they are important for interfacing the output of MG5
## to external program such as Pythia.
DECAY  1 0.000000 # d : 0.0 
DECAY  2 0.000000 # u : 0.0 
DECAY  3 0.000000 # s : 0.0 
DECAY  4 0.000000 # c : 0.0 
DECAY  5 0.000000 # b : 0.0 
DECAY  11 0.000000 # e- : 0.0 
DECAY  12 0.000000 # ve : 0.0 
DECAY  13 0.000000 # mu- : 0.0 
DECAY  14 0.000000 # vm : 0.0 
DECAY  15 0.000000 # ta- : 0.0 
DECAY  16 0.000000 # vt : 0.0 
DECAY  21 0.000000 # g : 0.0 
DECAY  22 0.000000 # a : 0.0
</slha>
## END BANNER##
<MGGenerationInfo>
#  Number of Events        :         1000
#  Integrated weight (pb)  :  0.85110E+06
#  Truncated wgt (pb)      :  0.10471E+02
#  Unit wgt                :  0.85129E+03
</MGGenerationInfo>
</header>
<init>
     2212     2212  0.50000000000E+05  0.50000000000E+05 0 0  292200  292200  3   3
  0.22335388320E+06  0.15515103899E+04  0.85110000000E+03   3
  0.25407966590E+06  0.17649446514E+04  0.85110000000E+03   2
  0.37175320690E+06  0.25823547580E+04  0.85110000000E+03   1
<generator name='MadGraph5_aMC@NLO' version='#2.5.1'>please cite 1405.0301 </generator>
</init>
<event>
 4   2  0.8512900E+003  0.1011236E+03  0.7546771E-02  0.1161905E+00
       21   -1    0    0  501  502  0.00000000000E+00  0.00000000000E+00  0.23784615569E+02  0.23784615569E+02  0.00000000000E+00 0.  1.
       -3   -1    0    0    0  501 -0.00000000000E+00 -0.00000000000E+00 -0.13519508861E+04  0.13519508861E+04  0.00000000000E+00 0.  1.
       23    1    1    2    0    0  0.91831610207E+01 -0.42736389208E+02 -0.13281795487E+04  0.13320236087E+04  0.91188000000E+02 0.  1.
       -3    1    1    2    0  502 -0.91831610207E+01  0.42736389208E+02  0.13278112736E-01  0.43711892949E+02  0.00000000000E+00 0.  1.
<scales pt_clust_3="100000.00000" pt_clust_4="43.71189"></scales>
<rwgt>
<wgt id='bias'>   0.1000000E+01</wgt>
</rwgt>
<clustering>
<clus scale="   43.712">  1  4  2 -1</clus>
<clus scale="   43.712">  1  3  2 -1</clus>
</clustering>
</event>
<event>
 4   2  0.8512900E+003  0.9260239E+02  0.7546771E-02  0.1177288E+00
       21   -1    0    0  501  502  0.00000000000E+00  0.00000000000E+00  0.13236297201E+03  0.13236297201E+03  0.00000000000E+00 0. -1.
       -1   -1    0    0    0  501 -0.00000000000E+00 -0.00000000000E+00 -0.22345847492E+02  0.22345847492E+02  0.00000000000E+00 0.  1.
       23    1    1    2    0    0 -0.12646084399E+02  0.10001353612E+02  0.92083645012E+02  0.13059325996E+03  0.91188000000E+02 0.  0.
       -1    1    1    2    0  502  0.12646084399E+02 -0.10001353612E+02  0.17933479502E+02  0.24115559537E+02  0.00000000000E+00 0.  1.
<scales pt_clust_3="100000.00000" pt_clust_4="16.12298"></scales>
<rwgt>
<wgt id='bias'>   0.1000000E+01</wgt>
</rwgt>
<clustering>
<clus scale="   16.123">  1  4  2 -1</clus>
<clus scale="   16.123">  1  3  2 -1</clus>
</clustering>
</event>
<event>
 4   2  0.8512900E+003  0.9674668E+02  0.7546771E-02  0.1169584E+00
       -2   -1    0    0    0  501 -0.00000000000E+00  0.00000000000E+00  0.48368592658E+03  0.48368592658E+03  0.00000000000E+00 0. -1.
        2   -1    0    0  502    0  0.00000000000E+00 -0.00000000000E+00 -0.93660651610E+01  0.93660651610E+01  0.00000000000E+00 0.  1.
       23    1    1    2    0    0  0.20438186108E+02 -0.25038947707E+02  0.40747841386E+03  0.41880613351E+03  0.91188000000E+02 0.  0.
       21    1    1    2  502  501 -0.20438186108E+02  0.25038947707E+02  0.66841447550E+02  0.74245858230E+02  0.00000000000E+00 0.  1.
<scales pt_clust_3="100000.00000" pt_clust_4="32.32133"></scales>
<rwgt>
<wgt id='bias'>   0.1000000E+01</wgt>
</rwgt>
<clustering>
<clus scale="   32.321">  2  4  1 -1</clus>
<clus scale="   32.321">  2  3  1 -1</clus>
</clustering>
</event>
<event>
 4   2  0.8512900E+003  0.9186699E+02  0.7546771E-02  0.1178703E+00
        2   -1    0    0  502    0 -0.00000000000E+00  0.00000000000E+00  0.31306573913E+01  0.31306573913E+01  0.00000000000E+00 0. -1.
       21   -1    0    0  501  502  0.00000000000E+00 -0.00000000000E+00 -0.52127216799E+04  0.52127216799E+04  0.00000000000E+00 0. -1.
       23    1    1    2    0    0 -0.58718122299E+01  0.94770656076E+01 -0.67229715237E+03  0.67854477036E+03  0.91188000000E+02 0. -1.
        2    1    1    2  501    0  0.58718122299E+01 -0.94770656076E+01 -0.45372938702E+04  0.45373075670E+04  0.00000000000E+00 0. -1.
<scales pt_clust_3="100000.00000" pt_clust_4="11.14867"></scales>
<rwgt>
<wgt id='bias'>   0.1000000E+01</wgt>
</rwgt>
<clustering>
<clus scale="   11.149">  2  4  1 -1</clus>
<clus scale="   11.149">  2  3  1 -1</clus>
</clustering>
</event>
<event>
 4   2  0.8512900E+003  0.9574820E+02  0.7546771E-02  0.1171400E+00
       -3   -1    0    0    0  501 -0.00000000000E+00  0.00000000000E+00  0.25728438231E+01  0.25728438231E+01  0.00000000000E+00 0.  1.
        3   -1    0    0  502    0  0.00000000000E+00 -0.00000000000E+00 -0.16913090513E+04  0.16913090513E+04  0.00000000000E+00 0. -1.
       23    1    1    2    0    0 -0.24483250922E+02  0.15907113016E+02 -0.14825586759E+04  0.14856473150E+04  0.91188000000E+02 0. -1.
       21    1    1    2  502  501  0.24483250922E+02 -0.15907113016E+02 -0.20617753159E+03  0.20823458011E+03  0.00000000000E+00 0.  1.
<scales pt_clust_3="100000.00000" pt_clust_4="29.19702"></scales>
<rwgt>
<wgt id='bias'>   0.1000000E+01</wgt>
</rwgt>
<clustering>
<clus scale="   29.197">  1  4  2 -1</clus>
<clus scale="   95.748">  2  3  1 -1</clus>
</clustering>
</event>
<event>
 4   2  0.8512900E+003  0.1019662E+03  0.7546771E-02  0.1160477E+00
       21   -1    0    0  501  502  0.00000000000E+00  0.00000000000E+00  0.38583780688E+00  0.38583780688E+00  0.00000000000E+00 0.  1.
        1   -1    0    0  502    0 -0.00000000000E+00 -0.00000000000E+00 -0.17680563573E+05  0.17680563573E+05  0.00000000000E+00 0. -1.
       23    1    1    2    0    0  0.15135812777E+02 -0.43043688023E+02 -0.15266092863E+05  0.15266433389E+05  0.91188000000E+02 0.  0.
        1    1    1    2  501    0 -0.15135812777E+02  0.43043688023E+02 -0.24140848725E+04  0.24145160227E+04  0.00000000000E+00 0. -1.
<scales pt_clust_3="100000.00000" pt_clust_4="45.62732"></scales>
<rwgt>
<wgt id='bias'>   0.1000000E+01</wgt>
</rwgt>
<clustering>
<clus scale="   45.627">  1  4  2 -1</clus>
<clus scale="   45.627">  1  3  2 -1</clus>
</clustering>
</event>
<event>
 3   1  0.8512900E+003  0.9118800E+02  0.7546771E-02  0.1180022E+00
       -1   -1    0    0    0  501 -0.00000000000E+00  0.00000000000E+00  0.15876228529E+02  0.15876228529E+02  0.00000000000E+00 0.  1.
        1   -1    0    0  501    0  0.00000000000E+00 -0.00000000000E+00 -0.13093870702E+03  0.13093870702E+03  0.00000000000E+00 0. -1.
       23    1    1    2    0    0  0.00000000000E+00 -0.00000000000E+00 -0.11506247849E+03  0.14681493555E+03  0.91188000000E+02 0.  1.
<scales pt_clust_3="100000.00000"></scales>
<rwgt>
<wgt id='bias'>   0.1000000E+01</wgt>
</rwgt>
<clustering>
<clus scale="   91.188">  2  3  1 -1</clus>
</clustering>
</event>
<event>
 5   3  0.8512900E+003  0.6156849E+02  0.7546771E-02  0.1147544E+00
       21   -1    0    0  503  502  0.00000000000E+00  0.00000000000E+00  0.68082198680E+03  0.68082198680E+03  0.00000000000E+00 0.  1.
       21   -1    0    0  501  503 -0.00000000000E+00 -0.00000000000E+00 -0.28214482594E+02  0.28214482594E+02  0.00000000000E+00 0. -1.
       23    1    1    2    0    0  0.70436541279E+02  0.77741334116E+02  0.32770554674E+03  0.35596516415E+03  0.91188000000E+02 0.  1.
        3    1    1    2  501    0 -0.32634986511E+02 -0.39556986111E+02  0.45522114876E+02  0.68571571643E+02  0.00000000000E+00 0. -1.
       -3    1    1    2    0  502 -0.37801554767E+02 -0.38184348005E+02  0.27937984259E+03  0.28449973360E+03  0.00000000000E+00 0.  1.
<scales pt_clust_3="100000.00000" pt_clust_4="51.28155" pt_clust_5="61.56849"></scales>
<rwgt>
<wgt id='bias'>   0.1000000E+01</wgt>
</rwgt>
<clustering>
<clus scale="   51.282">  2  4  1 -1</clus>
<clus scale="   61.568">  1  5  2 -1</clus>
<clus scale="   61.568">  1  3  2 -1</clus>
</clustering>
</event>
<event>
 4   2  0.8512900E+003  0.9890599E+02  0.7546771E-02  0.1165740E+00
        5   -1    0    0  502    0  0.00000000000E+00  0.00000000000E+00  0.79336544716E+00  0.79336544716E+00  0.00000000000E+00 0. -1.
       -5   -1    0    0    0  501 -0.00000000000E+00 -0.00000000000E+00 -0.66762659454E+04  0.66762659454E+04  0.00000000000E+00 0.  1.
       23    1    1    2    0    0 -0.30196112507E+02  0.23565599966E+02 -0.56608780192E+04  0.56617419883E+04  0.91188000000E+02 0.  1.
       21    1    1    2  502  501  0.30196112507E+02 -0.23565599966E+02 -0.10145945608E+04  0.10153173225E+04  0.00000000000E+00 0. -1.
<scales pt_clust_3="100000.00000" pt_clust_4="38.30330"></scales>
<rwgt>
<wgt id='bias'>   0.1000000E+01</wgt>
</rwgt>
<clustering>
<clus scale="   38.303">  1  4  2 -1</clus>
<clus scale="   38.303">  1  3  2 -1</clus>
</clustering>
</event>
<event>
 4   2  0.8512900E+003  0.9239180E+02  0.7546771E-02  0.1177692E+00
       -1   -1    0    0    0  501 -0.00000000000E+00  0.00000000000E+00  0.11748184299E+02  0.11748184299E+02  0.00000000000E+00 0.  1.
        1   -1    0    0  502    0  0.00000000000E+00 -0.00000000000E+00 -0.26563563870E+03  0.26563563870E+03  0.00000000000E+00 0. -1.
       23    1    1    2    0    0  0.14798569260E+02  0.14125091329E+01 -0.23946938007E+03  0.25667455691E+03  0.91188000000E+02 0.  0.
       21    1    1    2  502  501 -0.14798569260E+02 -0.14125091329E+01 -0.14418074335E+02  0.20709266084E+02  0.00000000000E+00 0. -1.
<scales pt_clust_3="100000.00000" pt_clust_4="14.86583"></scales>
<rwgt>
<wgt id='bias'>   0.1000000E+01</wgt>
</rwgt>
<clustering>
<clus scale="   14.866">  1  4  2 -1</clus>
<clus scale="   92.392">  2  3  1 -1</clus>
</clustering>
</event>
<event>
 4   2  0.8512900E+003  0.9457888E+02  0.7546771E-02  0.1173559E+00
        3   -1    0    0  502    0 -0.00000000000E+00  0.00000000000E+00  0.13441159185E+03  0.13441159185E+03  0.00000000000E+00 0. -1.
       21   -1    0    0  501  502  0.00000000000E+00 -0.00000000000E+00 -0.27892973758E+02  0.27892973758E+02  0.00000000000E+00 0. -1.
       23    1    1    2    0    0 -0.24295405449E+01  0.24980211259E+02  0.96957183958E+02  0.13544689176E+03  0.91188000000E+02 0. -1.
        3    1    1    2  501    0  0.24295405449E+01 -0.24980211259E+02  0.95614341286E+01  0.26857673846E+02  0.00000000000E+00 0. -1.
<scales pt_clust_3="100000.00000" pt_clust_4="25.09808"></scales>
<rwgt>
<wgt id='bias'>   0.1000000E+01</wgt>
</rwgt>
<clustering>
<clus scale="   25.098">  2  4  1 -1</clus>
<clus scale="   25.098">  2  3  1 -1</clus>
</clustering>
</event>
<event>
 4   2  0.8512900E+003  0.1547460E+03  0.7546771E-02  0.1092986E+00
       21   -1    0    0  501  502  0.00000000000E+00  0.00000000000E+00  0.13160338228E+04  0.13160338228E+04  0.00000000000E+00 0. -1.
        2   -1    0    0  502    0 -0.00000000000E+00 -0.00000000000E+00 -0.19426538457E+02  0.19426538457E+02  0.00000000000E+00 0. -1.
       23    1    1    2    0    0 -0.12497395230E+03 -0.35457510207E+01  0.37898991550E+03  0.40936495758E+03  0.91188000000E+02 0. -1.
        2    1    1    2  501    0  0.12497395230E+03  0.35457510207E+01  0.91761736886E+03  0.92609540369E+03  0.00000000000E+00 0. -1.
<scales pt_clust_3="100000.00000" pt_clust_4="125.02424"></scales>
<rwgt>
<wgt id='bias'>   0.1000000E+01</wgt>
</rwgt>
<clustering>
<clus scale="  125.024">  1  4  2 -1</clus>
<clus scale="  125.024">  1  3  2 -1</clus>
</clustering>
</event>
<event>
 4   2  0.8512900E+003  0.9326462E+02  0.7546771E-02  0.1176027E+00
        2   -1    0    0  502    0  0.00000000000E+00  0.00000000000E+00  0.22744683326E+03  0.22744683326E+03  0.00000000000E+00 0. -1.
       -2   -1    0    0    0  501 -0.00000000000E+00 -0.00000000000E+00 -0.16410332401E+02  0.16410332401E+02  0.00000000000E+00 0.  1.
       23    1    1    2    0    0  0.63489276677E+01 -0.18512954512E+02  0.20160343197E+03  0.22213111779E+03  0.91188000000E+02 0. -1.
       21    1    1    2  502  501 -0.63489276677E+01  0.18512954512E+02  0.94330688946E+01  0.21726047870E+02  0.00000000000E+00 0. -1.
<scales pt_clust_3="100000.00000" pt_clust_4="19.57137"></scales>
<rwgt>
<wgt id='bias'>   0.1000000E+01</wgt>
</rwgt>
<clustering>
<clus scale="   19.571">  2  4  1 -1</clus>
<clus scale="   93.265">  1  3  2 -1</clus>
</clustering>
</event>
<event>
 5   3  0.8512900E+003  0.1110579E+03  0.7546771E-02  0.1145979E+00
       21   -1    0    0  503  502  0.00000000000E+00  0.00000000000E+00  0.22844667745E+02  0.22844667745E+02  0.00000000000E+00 0.  1.
       -1   -1    0    0    0  501 -0.00000000000E+00 -0.00000000000E+00 -0.49813567401E+03  0.49813567401E+03  0.00000000000E+00 0.  1.
       23    1    1    2    0    0 -0.54964839626E+02  0.28653944524E+01 -0.30370629187E+03  0.32184174239E+03  0.91188000000E+02 0.  1.
       21    1    1    2  503  501 -0.13195026418E+02  0.19979345112E+02 -0.19350693825E+02  0.30785261162E+02  0.00000000000E+00 0. -1.
       -1    1    1    2    0  502  0.68159866044E+02 -0.22844739564E+02 -0.15223402057E+03  0.16835333820E+03  0.00000000000E+00 0.  1.
<scales pt_clust_3="100000.00000" pt_clust_4="23.94333" pt_clust_5="63.39243"></scales>
<rwgt>
<wgt id='bias'>   0.1000000E+01</wgt>
</rwgt>
<clustering>
<clus scale="   23.943">  1  4  2 -1</clus>
<clus scale="   63.392">  1  5  2 -1</clus>
<clus scale="   23.943">  1  3  2 -1</clus>
</clustering>
</event>
<event>
 5   3  0.8512900E+003  0.1792960E+03  0.7546771E-02  0.1071025E+00
       21   -1    0    0  503  502  0.00000000000E+00  0.00000000000E+00  0.19829310931E+03  0.19829310931E+03  0.00000000000E+00 0. -1.
       -2   -1    0    0    0  501 -0.00000000000E+00 -0.00000000000E+00 -0.13321566220E+04  0.13321566220E+04  0.00000000000E+00 0.  1.
       23    1    1    2    0    0  0.26232793086E+02  0.42883968202E+02 -0.13044827566E+04  0.13086319986E+04  0.91188000000E+02 0.  1.
       21    1    1    2  503  501 -0.27307458543E+02 -0.23435847952E+02  0.19056867997E+03  0.19393647941E+03  0.00000000000E+00 0. -1.
       -2    1    1    2    0  502  0.10746654572E+01 -0.19448120250E+02 -0.19949436109E+02  0.27881253347E+02  0.00000000000E+00 0.  1.
<scales pt_clust_3="100000.00000" pt_clust_4="35.98522" pt_clust_5="100000.00000"></scales>
<rwgt>
<wgt id='bias'>   0.1000000E+01</wgt>
</rwgt>
<clustering>
<clus scale="   19.478">  3  5 -1 -1</clus>
<clus scale="   35.985">  1  4  2 -1</clus>
<clus scale="   35.985">  1  3  2 -1</clus>
</clustering>
</event>
<event>
 3   1  0.8512900E+003  0.9118800E+02  0.7546771E-02  0.1180022E+00
        1   -1    0    0  501    0  0.00000000000E+00  0.00000000000E+00  0.72055128799E+04  0.72055128799E+04  0.00000000000E+00 0. -1.
       -1   -1    0    0    0  501 -0.00000000000E+00 -0.00000000000E+00 -0.28850310459E+00  0.28850310459E+00  0.00000000000E+00 0.  1.
       23    1    1    2    0    0  0.00000000000E+00  0.00000000000E+00  0.72052243768E+04  0.72058013830E+04  0.91188000000E+02 0. -1.
<scales pt_clust_3="100000.00000"></scales>
<rwgt>
<wgt id='bias'>   0.1000000E+01</wgt>
</rwgt>
<clustering>
<clus scale="   91.188">  1  3  2 -1</clus>
</clustering>
</event>
<event>
 3   1  0.8512900E+003  0.9118800E+02  0.7546771E-02  0.1180022E+00
        1   -1    0    0  501    0  0.00000000000E+00  0.00000000000E+00  0.22883332596E+02  0.22883332596E+02  0.00000000000E+00 0. -1.
       -1   -1    0    0    0  501 -0.00000000000E+00 -0.00000000000E+00 -0.90843972454E+02  0.90843972454E+02  0.00000000000E+00 0.  1.
       23    1    1    2    0    0  0.00000000000E+00  0.00000000000E+00 -0.67960639858E+02  0.11372730505E+03  0.91188000000E+02 0. -1.
<scales pt_clust_3="100000.00000"></scales>
<rwgt>
<wgt id='bias'>   0.1000000E+01</wgt>
</rwgt>
<clustering>
<clus scale="   91.188">  1  3  2 -1</clus>
</clustering>
</event>
<event>
 5   3  0.8512900E+003  0.1720025E+02  0.7546771E-02  0.1176984E+00
       -2   -1    0    0    0  501 -0.00000000000E+00  0.00000000000E+00  0.64527394057E+02  0.64527394057E+02  0.00000000000E+00 0.  1.
       21   -1    0    0  503  502  0.00000000000E+00 -0.00000000000E+00 -0.83424091950E+02  0.83424091950E+02  0.00000000000E+00 0. -1.
       23    1    1    2    0    0  0.19496583432E+02 -0.65647546296E+01  0.20249685809E+01  0.93501682395E+02  0.91188000000E+02 0.  1.
       21    1    1    2  503  501 -0.53277700142E+01  0.16354306208E+02  0.93832885134E+01  0.19593227611E+02  0.00000000000E+00 0. -1.
       -2    1    1    2    0  502 -0.14168813418E+02 -0.97895515785E+01 -0.30304954988E+02  0.34856576002E+02  0.00000000000E+00 0.  1.
<scales pt_clust_3="100000.00000" pt_clust_4="17.20025" pt_clust_5="17.01488"></scales>
<rwgt>
<wgt id='bias'>   0.1000000E+01</wgt>
</rwgt>
<clustering>
<clus scale="   17.200">  1  4  2 -1</clus>
<clus scale="   17.015">  2  5  1 -1</clus>
<clus scale="   17.015">  2  3  1 -1</clus>
</clustering>
</event>
<event>
 4   2  0.8512900E+003  0.9235851E+02  0.7546771E-02  0.1177756E+00
       -2   -1    0    0    0  501 -0.00000000000E+00  0.00000000000E+00  0.66710437649E+00  0.66710437649E+00  0.00000000000E+00 0.  1.
        2   -1    0    0  502    0  0.00000000000E+00 -0.00000000000E+00 -0.46637963069E+04  0.46637963069E+04  0.00000000000E+00 0. -1.
       23    1    1    2    0    0 -0.35115830556E+01  0.14230670573E+02 -0.43620279199E+04  0.43630055774E+04  0.91188000000E+02 0. -1.
       21    1    1    2  502  501  0.35115830556E+01 -0.14230670573E+02 -0.30110128262E+03  0.30145783386E+03  0.00000000000E+00 0.  1.
<scales pt_clust_3="100000.00000" pt_clust_4="14.65753"></scales>
<rwgt>
<wgt id='bias'>   0.1000000E+01</wgt>
</rwgt>
<clustering>
<clus scale="   14.658">  1  4  2 -1</clus>
<clus scale="   92.359">  2  3  1 -1</clus>
</clustering>
</event>
<event>
 4   2  0.8512900E+003  0.9243553E+02  0.7546771E-02  0.1177608E+00
        4   -1    0    0  502    0 -0.00000000000E+00  0.00000000000E+00  0.34491910169E+01  0.34491910169E+01  0.00000000000E+00 0.  1.
       21   -1    0    0  501  502  0.00000000000E+00 -0.00000000000E+00 -0.85532402122E+03  0.85532402122E+03  0.00000000000E+00 0. -1.
       23    1    1    2    0    0 -0.15061302016E+02  0.14943296647E+01 -0.76811744370E+03  0.77365931424E+03  0.91188000000E+02 0. -1.
        4    1    1    2  501    0  0.15061302016E+02 -0.14943296647E+01 -0.83757386503E+02  0.85113898004E+02  0.00000000000E+00 0.  1.
<scales pt_clust_3="100000.00000" pt_clust_4="15.13526"></scales>
<rwgt>
<wgt id='bias'>   0.1000000E+01</wgt>
</rwgt>
<clustering>
<clus scale="   15.135">  2  4  1 -1</clus>
<clus scale="   15.135">  2  3  1 -1</clus>
</clustering>
</event>
<event>
 3   1  0.8512900E+003  0.9118800E+02  0.7546771E-02  0.1180022E+00
        2   -1    0    0  501    0  0.00000000000E+00  0.00000000000E+00  0.12461514323E+04  0.12461514323E+04  0.00000000000E+00 0.  1.
       -2   -1    0    0    0  501 -0.00000000000E+00 -0.00000000000E+00 -0.16681863714E+01  0.16681863714E+01  0.00000000000E+00 0. -1.
       23    1    1    2    0    0  0.00000000000E+00  0.00000000000E+00  0.12444832459E+04  0.12478196186E+04  0.91188000000E+02 0.  1.
<scales pt_clust_3="100000.00000"></scales>
<rwgt>
<wgt id='bias'>   0.1000000E+01</wgt>
</rwgt>
<clustering>
<clus scale="   91.188">  1  3  2 -1</clus>
</clustering>
</event>
<event>
 3   1  0.8512900E+003  0.9118800E+02  0.7546771E-02  0.1180022E+00
       -5   -1    0    0    0  501 -0.00000000000E+00  0.00000000000E+00  0.70326191850E+02  0.70326191850E+02  0.00000000000E+00 0.  1.
        5   -1    0    0  501    0  0.00000000000E+00 -0.00000000000E+00 -0.29559582018E+02  0.29559582018E+02  0.00000000000E+00 0. -1.
       23    1    1    2    0    0  0.00000000000E+00 -0.00000000000E+00  0.40766609832E+02  0.99885773868E+02  0.91188000000E+02 0.  1.
<scales pt_clust_3="100000.00000"></scales>
<rwgt>
<wgt id='bias'>   0.1000000E+01</wgt>
</rwgt>
<clustering>
<clus scale="   91.188">  2  3  1 -1</clus>
</clustering>
</event>
<event>
 5   3  0.8512900E+003  0.1246806E+03  0.7546771E-02  0.1126904E+00
       -1   -1    0    0    0  501 -0.00000000000E+00  0.00000000000E+00  0.84932926298E+04  0.84932926298E+04  0.00000000000E+00 0.  1.
        3   -1    0    0  501    0  0.00000000000E+00 -0.00000000000E+00 -0.96606273275E+01  0.96606273275E+01  0.00000000000E+00 0.  1.
       23    1    1    2    0    0  0.49065078996E+02  0.71652501762E+02  0.82558955867E+04  0.82568558576E+04  0.91188000000E+02 0.  1.
        3    1    1    2  502    0 -0.44520857281E+01 -0.23887232772E+02  0.35219335182E+02  0.42788111988E+02  0.00000000000E+00 0.  1.
       -1    1    1    2    0  502 -0.44612993268E+02 -0.47765268990E+02  0.19251708061E+03  0.20330928758E+03  0.00000000000E+00 0.  1.
<scales pt_clust_3="100000.00000" pt_clust_4="24.29858" pt_clust_5="85.02946"></scales>
<rwgt>
<wgt id='bias'>   0.1000000E+01</wgt>
</rwgt>
<clustering>
<clus scale="   24.299">  2  4  1 -1</clus>
<clus scale="   85.029">  2  5  1 -1</clus>
<clus scale="   24.299">  2  3  1 -1</clus>
</clustering>
</event>
<event>
 5   3  0.8512900E+003  0.3848091E+03  0.7546771E-02  0.9701759E-01
        5   -1    0    0  503    0 -0.00000000000E+00  0.00000000000E+00  0.39561691740E+03  0.39561691740E+03  0.00000000000E+00 0.  1.
       21   -1    0    0  501  502  0.00000000000E+00 -0.00000000000E+00 -0.10796416228E+03  0.10796416228E+03  0.00000000000E+00 0.  1.
       23    1    1    2    0    0  0.14392765557E+03  0.10894376903E+03  0.13076778044E+03  0.24083060145E+03  0.91188000000E+02 0.  1.
       21    1    1    2  503  502 -0.69884036505E+01  0.80347024284E+01 -0.11866647181E+02  0.15944012795E+02  0.00000000000E+00 0.  1.
        5    1    1    2  501    0 -0.13693925192E+03 -0.11697847146E+03  0.16875162185E+03  0.24680646543E+03  0.00000000000E+00 0.  1.
<scales pt_clust_3="100000.00000" pt_clust_4="10.64867" pt_clust_5="100000.00000"></scales>
<rwgt>
<wgt id='bias'>   0.1000000E+01</wgt>
</rwgt>
<clustering>
<clus scale="   10.649">  2  4  1 -1</clus>
<clus scale="  180.195">  3  5 -1 -1</clus>
<clus scale="   10.649">  2  3  1 -1</clus>
</clustering>
</event>
<event>
 4   2  0.8512900E+003  0.9173692E+02  0.7546771E-02  0.1178955E+00
        3   -1    0    0  502    0  0.00000000000E+00  0.00000000000E+00  0.61498146017E+01  0.61498146017E+01  0.00000000000E+00 0. -1.
       -3   -1    0    0    0  501 -0.00000000000E+00 -0.00000000000E+00 -0.46379938620E+03  0.46379938620E+03  0.00000000000E+00 0.  1.
       23    1    1    2    0    0 -0.13653043038E+00 -0.10019595891E+02 -0.44160274535E+03  0.45103064972E+03  0.91188000000E+02 0.  1.
       21    1    1    2  502  501  0.13653043038E+00  0.10019595891E+02 -0.16046826248E+02  0.18918551081E+02  0.00000000000E+00 0. -1.
<scales pt_clust_3="100000.00000" pt_clust_4="10.02053"></scales>
<rwgt>
<wgt id='bias'>   0.1000000E+01</wgt>
</rwgt>
<clustering>
<clus scale="   10.021">  1  4  2 -1</clus>
<clus scale="   10.021">  1  3  2 -1</clus>
</clustering>
</event>
<event>
 3   1  0.8512900E+003  0.9118800E+02  0.7546771E-02  0.1180022E+00
       -1   -1    0    0    0  501 -0.00000000000E+00  0.00000000000E+00  0.42587510696E+03  0.42587510696E+03  0.00000000000E+00 0.  1.
        1   -1    0    0  501    0  0.00000000000E+00 -0.00000000000E+00 -0.48812734110E+01  0.48812734110E+01  0.00000000000E+00 0. -1.
       23    1    1    2    0    0  0.00000000000E+00 -0.00000000000E+00  0.42099383355E+03  0.43075638037E+03  0.91188000000E+02 0.  1.
<scales pt_clust_3="100000.00000"></scales>
<rwgt>
<wgt id='bias'>   0.1000000E+01</wgt>
</rwgt>
<clustering>
<clus scale="   91.188">  2  3  1 -1</clus>
</clustering>
</event>
<event>
 4   2  0.8512900E+003  0.9681021E+02  0.7546771E-02  0.1169470E+00
        2   -1    0    0  502    0  0.00000000000E+00  0.00000000000E+00  0.15138017246E+05  0.15138017246E+05  0.00000000000E+00 0. -1.
       -2   -1    0    0    0  501 -0.00000000000E+00 -0.00000000000E+00 -0.58666007020E+00  0.58666007020E+00  0.00000000000E+00 0.  1.
       23    1    1    2    0    0  0.20990510795E+02  0.24826683067E+02  0.41642793554E+04  0.41654045142E+04  0.91188000000E+02 0.  1.
       21    1    1    2  502  501 -0.20990510795E+02 -0.24826683067E+02  0.10973151230E+05  0.10973199391E+05  0.00000000000E+00 0. -1.
<scales pt_clust_3="100000.00000" pt_clust_4="32.51101"></scales>
<rwgt>
<wgt id='bias'>   0.1000000E+01</wgt>
</rwgt>
<clustering>
<clus scale="   32.511">  1  4  2 -1</clus>
<clus scale="   32.511">  1  3  2 -1</clus>
</clustering>
</event>
<event>
 3   1  0.8512900E+003  0.9118800E+02  0.7546771E-02  0.1180022E+00
        2   -1    0    0  501    0  0.00000000000E+00  0.00000000000E+00  0.73010193082E+03  0.73010193082E+03  0.00000000000E+00 0. -1.
       -2   -1    0    0    0  501 -0.00000000000E+00 -0.00000000000E+00 -0.28472912456E+01  0.28472912456E+01  0.00000000000E+00 0.  1.
       23    1    1    2    0    0  0.00000000000E+00  0.00000000000E+00  0.72725463957E+03  0.73294922207E+03  0.91188000000E+02 0. -1.
<scales pt_clust_3="100000.00000"></scales>
<rwgt>
<wgt id='bias'>   0.1000000E+01</wgt>
</rwgt>
<clustering>
<clus scale="   91.188">  1  3  2 -1</clus>
</clustering>
</event>
<event>
 4   2  0.8512900E+003  0.9332233E+02  0.7546771E-02  0.1175918E+00
       21   -1    0    0  501  502  0.00000000000E+00  0.00000000000E+00  0.13299992461E+01  0.13299992461E+01  0.00000000000E+00 0.  1.
        2   -1    0    0  502    0 -0.00000000000E+00 -0.00000000000E+00 -0.25108142394E+04  0.25108142394E+04  0.00000000000E+00 0. -1.
       23    1    1    2    0    0  0.28293297476E+01 -0.19641825724E+02 -0.22327138026E+04  0.22346632816E+04  0.91188000000E+02 0. -1.
        2    1    1    2  501    0 -0.28293297476E+01  0.19641825724E+02 -0.27677043750E+03  0.27748095701E+03  0.00000000000E+00 0. -1.
<scales pt_clust_3="100000.00000" pt_clust_4="19.84456"></scales>
<rwgt>
<wgt id='bias'>   0.1000000E+01</wgt>
</rwgt>
<clustering>
<clus scale="   19.845">  1  4  2 -1</clus>
<clus scale="   19.845">  1  3  2 -1</clus>
</clustering>
</event>
<event>
 3   1  0.8512900E+003  0.9118800E+02  0.7546771E-02  0.1180022E+00
        2   -1    0    0  501    0  0.00000000000E+00  0.00000000000E+00  0.18951572353E+04  0.18951572353E+04  0.00000000000E+00 0. -1.
       -2   -1    0    0    0  501 -0.00000000000E+00 -0.00000000000E+00 -0.10969078435E+01  0.10969078435E+01  0.00000000000E+00 0.  1.
       23    1    1    2    0    0  0.00000000000E+00  0.00000000000E+00  0.18940603274E+04  0.18962541431E+04  0.91188000000E+02 0. -1.
<scales pt_clust_3="100000.00000"></scales>
<rwgt>
<wgt id='bias'>   0.1000000E+01</wgt>
</rwgt>
<clustering>
<clus scale="   91.188">  1  3  2 -1</clus>
</clustering>
</event>
<event>
 5   3  0.8512900E+003  0.1170686E+03  0.7546771E-02  0.1137211E+00
        5   -1    0    0  501    0 -0.00000000000E+00  0.00000000000E+00  0.25248757675E+04  0.25248757675E+04  0.00000000000E+00 0.  1.
        1   -1    0    0  502    0  0.00000000000E+00 -0.00000000000E+00 -0.31334335767E+01  0.31334335767E+01  0.00000000000E+00 0. -1.
       23    1    1    2    0    0 -0.66129202420E+00  0.70695151759E+01  0.18377389803E+04  0.18400136484E+04  0.91188000000E+02 0.  0.
        1    1    1    2  501    0 -0.17969857304E+02  0.98334948262E+01  0.58431843156E+02  0.61918443833E+02  0.00000000000E+00 0. -1.
        5    1    1    2  502    0  0.18631149328E+02 -0.16903010002E+02  0.62557151047E+03  0.62607710882E+03  0.00000000000E+00 0.  1.
<scales pt_clust_3="100000.00000" pt_clust_4="20.48447" pt_clust_5="100000.00000"></scales>
<rwgt>
<wgt id='bias'>   0.1000000E+01</wgt>
</rwgt>
<clustering>
<clus scale="   20.484">  2  4  1 -1</clus>
<clus scale="   21.552">  3  5 -1 -1</clus>
<clus scale="   20.484">  2  3  1 -1</clus>
</clustering>
</event>
<event>
 3   1  0.8512900E+003  0.9118800E+02  0.7546771E-02  0.1180022E+00
        1   -1    0    0  501    0  0.00000000000E+00  0.00000000000E+00  0.10052726528E+03  0.10052726528E+03  0.00000000000E+00 0. -1.
       -1   -1    0    0    0  501 -0.00000000000E+00 -0.00000000000E+00 -0.20679094674E+02  0.20679094674E+02  0.00000000000E+00 0.  1.
       23    1    1    2    0    0  0.00000000000E+00  0.00000000000E+00  0.79848170601E+02  0.12120635995E+03  0.91188000000E+02 0. -1.
<scales pt_clust_3="100000.00000"></scales>
<rwgt>
<wgt id='bias'>   0.1000000E+01</wgt>
</rwgt>
<clustering>
<clus scale="   91.188">  1  3  2 -1</clus>
</clustering>
</event>
<event>
 4   2  0.8512900E+003  0.1386667E+03  0.7546771E-02  0.1109948E+00
       -1   -1    0    0    0  501 -0.00000000000E+00  0.00000000000E+00  0.12468920974E+04  0.12468920974E+04  0.00000000000E+00 0.  1.
       21   -1    0    0  501  502  0.00000000000E+00 -0.00000000000E+00 -0.11995699229E+02  0.11995699229E+02  0.00000000000E+00 0.  1.
       23    1    1    2    0    0 -0.88942533811E+02 -0.54794371099E+02  0.77143272084E+03  0.78379646054E+03  0.91188000000E+02 0.  1.
       -1    1    1    2    0  502  0.88942533811E+02  0.54794371099E+02  0.46346367738E+03  0.47509133614E+03  0.00000000000E+00 0.  1.
<scales pt_clust_3="100000.00000" pt_clust_4="104.46625"></scales>
<rwgt>
<wgt id='bias'>   0.1000000E+01</wgt>
</rwgt>
<clustering>
<clus scale="  104.466">  2  4  1 -1</clus>
<clus scale="  104.466">  2  3  1 -1</clus>
</clustering>
</event>
<event>
 5   3  0.8512900E+003  0.9560246E+02  0.7546771E-02  0.1171667E+00
       21   -1    0    0  503  502  0.00000000000E+00  0.00000000000E+00  0.10078801689E+03  0.10078801689E+03  0.00000000000E+00 0. -1.
        4   -1    0    0  502    0 -0.00000000000E+00 -0.00000000000E+00 -0.11114156015E+03  0.11114156015E+03  0.00000000000E+00 0. -1.
       23    1    1    2    0    0 -0.97370232031E+01  0.16334085773E+01 -0.45487870660E+02  0.10238103030E+03  0.91188000000E+02 0.  0.
       21    1    1    2  503  501 -0.23068448311E+02 -0.13836430574E+02  0.60574206664E+02  0.66278462803E+02  0.00000000000E+00 0. -1.
        4    1    1    2  501    0  0.32805471514E+02  0.12203021997E+02 -0.25439879256E+02  0.43270083934E+02  0.00000000000E+00 0. -1.
<scales pt_clust_3="100000.00000" pt_clust_4="26.89982" pt_clust_5="28.71547"></scales>
<rwgt>
<wgt id='bias'>   0.1000000E+01</wgt>
</rwgt>
<clustering>
<clus scale="   26.900">  1  4  2 -1</clus>
<clus scale="   28.715">  1  5  2 -1</clus>
<clus scale="   26.900">  1  3  2 -1</clus>
</clustering>
</event>
<event>
 4   2  0.8512900E+003  0.9186000E+02  0.7546771E-02  0.1178716E+00
        2   -1    0    0  502    0  0.00000000000E+00  0.00000000000E+00  0.13186023259E+05  0.13186023259E+05  0.00000000000E+00 0.  1.
       -2   -1    0    0    0  501 -0.00000000000E+00 -0.00000000000E+00 -0.24359930456E+00  0.24359930456E+00  0.00000000000E+00 0. -1.
       23    1    1    2    0    0  0.31492471971E+01 -0.10634389689E+02  0.89241000720E+04  0.89245728387E+04  0.91188000000E+02 0. -1.
       21    1    1    2  502  501 -0.31492471971E+01  0.10634389689E+02  0.42616795877E+04  0.42616940196E+04  0.00000000000E+00 0.  1.
<scales pt_clust_3="100000.00000" pt_clust_4="11.09090"></scales>
<rwgt>
<wgt id='bias'>   0.1000000E+01</wgt>
</rwgt>
<clustering>
<clus scale="   11.091">  1  4  2 -1</clus>
<clus scale="   11.091">  1  3  2 -1</clus>
</clustering>
</event>
<event>
 4   2  0.8512900E+003  0.9818956E+02  0.7546771E-02  0.1167003E+00
       -1   -1    0    0    0  501 -0.00000000000E+00  0.00000000000E+00  0.76825650783E+02  0.76825650783E+02  0.00000000000E+00 0.  1.
       21   -1    0    0  501  502  0.00000000000E+00 -0.00000000000E+00 -0.29676107653E+03  0.29676107653E+03  0.00000000000E+00 0. -1.
       23    1    1    2    0    0 -0.34540327049E+02 -0.11528413465E+02 -0.28367024997E+03  0.30018327830E+03  0.91188000000E+02 0. -1.
       -1    1    1    2    0  502  0.34540327049E+02  0.11528413465E+02  0.63734824217E+02  0.73403449018E+02  0.00000000000E+00 0.  1.
<scales pt_clust_3="100000.00000" pt_clust_4="36.41346"></scales>
<rwgt>
<wgt id='bias'>   0.1000000E+01</wgt>
</rwgt>
<clustering>
<clus scale="   36.413">  2  4  1 -1</clus>
<clus scale="   36.413">  2  3  1 -1</clus>
</clustering>
</event>
<event>
 3   1  0.8512900E+003  0.9118800E+02  0.7546771E-02  0.1180022E+00
       -2   -1    0    0    0  501 -0.00000000000E+00  0.00000000000E+00  0.75095091479E+00  0.75095091479E+00  0.00000000000E+00 0.  1.
        2   -1    0    0  501    0  0.00000000000E+00 -0.00000000000E+00 -0.27682406334E+04  0.27682406334E+04  0.00000000000E+00 0. -1.
       23    1    1    2    0    0  0.00000000000E+00 -0.00000000000E+00 -0.27674896825E+04  0.27689915843E+04  0.91188000000E+02 0.  1.
<scales pt_clust_3="100000.00000"></scales>
<rwgt>
<wgt id='bias'>   0.1000000E+01</wgt>
</rwgt>
<clustering>
<clus scale="   91.188">  2  3  1 -1</clus>
</clustering>
</event>
<event>
 4   2  0.8512900E+003  0.9197561E+02  0.7546771E-02  0.1178493E+00
        1   -1    0    0  502    0  0.00000000000E+00  0.00000000000E+00  0.82188577738E+03  0.82188577738E+03  0.00000000000E+00 0.  1.
       -1   -1    0    0    0  501 -0.00000000000E+00 -0.00000000000E+00 -0.45447417071E+01  0.45447417071E+01  0.00000000000E+00 0. -1.
       23    1    1    2    0    0  0.11594817514E+02 -0.31339881694E+01  0.47184205678E+03  0.48072283029E+03  0.91188000000E+02 0. -1.
       21    1    1    2  502  501 -0.11594817514E+02  0.31339881694E+01  0.34549897889E+03  0.34570768879E+03  0.00000000000E+00 0. -1.
<scales pt_clust_3="100000.00000" pt_clust_4="12.01090"></scales>
<rwgt>
<wgt id='bias'>   0.1000000E+01</wgt>
</rwgt>
<clustering>
<clus scale="   12.011">  1  4  2 -1</clus>
<clus scale="   12.011">  1  3  2 -1</clus>
</clustering>
</event>
<event>
 5   3  0.8512900E+003  0.9210666E+02  0.7546771E-02  0.1178240E+00
        3   -1    0    0  503    0 -0.00000000000E+00  0.00000000000E+00  0.93849844492E+01  0.93849844492E+01  0.00000000000E+00 0. -1.
       21   -1    0    0  501  502  0.00000000000E+00 -0.00000000000E+00 -0.42431007997E+03  0.42431007997E+03  0.00000000000E+00 0.  1.
       23    1    1    2    0    0  0.46246982171E+01 -0.36715451948E+01 -0.26617045795E+03  0.28141931722E+03  0.91188000000E+02 0. -1.
       21    1    1    2  503  502 -0.16121319613E+02  0.31143120553E+01 -0.12267672800E+03  0.12377065677E+03  0.00000000000E+00 0.  1.
        3    1    1    2  501    0  0.11496621396E+02  0.55723313951E+00 -0.26077909574E+02  0.28505090424E+02  0.00000000000E+00 0. -1.
<scales pt_clust_3="100000.00000" pt_clust_4="12.97636" pt_clust_5="11.51012"></scales>
<rwgt>
<wgt id='bias'>   0.1000000E+01</wgt>
</rwgt>
<clustering>
<clus scale="   11.510">  2  5  1 -1</clus>
<clus scale="   12.976">  2  4  1 -1</clus>
<clus scale="   11.510">  2  3  1 -1</clus>
</clustering>
</event>
<event>
 4   2  0.8512900E+003  0.9447643E+02  0.7546771E-02  0.1173750E+00
       21   -1    0    0  501  502  0.00000000000E+00  0.00000000000E+00  0.19150161452E+04  0.19150161452E+04  0.00000000000E+00 0. -1.
       -5   -1    0    0    0  501 -0.00000000000E+00 -0.00000000000E+00 -0.29049442520E+01  0.29049442520E+01  0.00000000000E+00 0.  1.
       23    1    1    2    0    0 -0.24586870086E+02 -0.24556173336E+01  0.80360585236E+03  0.80914038431E+03  0.91188000000E+02 0.  0.
       -5    1    1    2    0  502  0.24586870086E+02  0.24556173336E+01  0.11085053486E+04  0.11087807051E+04  0.00000000000E+00 0.  1.
<scales pt_clust_3="100000.00000" pt_clust_4="24.70919"></scales>
<rwgt>
<wgt id='bias'>   0.1000000E+01</wgt>
</rwgt>
<clustering>
<clus scale="   24.709">  1  4  2 -1</clus>
<clus scale="   24.709">  1  3  2 -1</clus>
</clustering>
</event>
<event>
 5   3  0.8512900E+003  0.7098888E+03  0.7546771E-02  0.9022535E-01
        1   -1    0    0  503    0 -0.00000000000E+00  0.00000000000E+00  0.56936031498E+04  0.56936031498E+04  0.00000000000E+00 0. -1.
       21   -1    0    0  501  502  0.00000000000E+00 -0.00000000000E+00 -0.24956843236E+02  0.24956843236E+02  0.00000000000E+00 0. -1.
       23    1    1    2    0    0 -0.27132089831E+03  0.97311038899E+02  0.12403870090E+04  0.12766987317E+04  0.91188000000E+02 0. -1.
       21    1    1    2  503  502  0.19454353292E+02 -0.28409367459E+01  0.33252463447E+02  0.38629899158E+02  0.00000000000E+00 0.  1.
        1    1    1    2  501    0  0.25186654502E+03 -0.94470102153E+02  0.43950068342E+04  0.44032313622E+04  0.00000000000E+00 0. -1.
<scales pt_clust_3="100000.00000" pt_clust_4="19.66069" pt_clust_5="100000.00000"></scales>
<rwgt>
<wgt id='bias'>   0.1000000E+01</wgt>
</rwgt>
<clustering>
<clus scale="   19.661">  2  4  1 -1</clus>
<clus scale="  272.550">  3  5 -1 -1</clus>
<clus scale="   19.661">  2  3  1 -1</clus>
</clustering>
</event>
<event>
 4   2  0.8512900E+003  0.1720339E+03  0.7546771E-02  0.1077097E+00
        2   -1    0    0  502    0 -0.00000000000E+00  0.00000000000E+00  0.34859060336E+04  0.34859060336E+04  0.00000000000E+00 0. -1.
       21   -1    0    0  501  502  0.00000000000E+00 -0.00000000000E+00 -0.84732790781E+01  0.84732790781E+01  0.00000000000E+00 0. -1.
       23    1    1    2    0    0 -0.14502561758E+03 -0.15747571080E+02  0.25234737212E+04  0.25293309963E+04  0.91188000000E+02 0. -1.
        2    1    1    2  501    0  0.14502561758E+03  0.15747571080E+02  0.95395903329E+03  0.96504831637E+03  0.00000000000E+00 0. -1.
<scales pt_clust_3="100000.00000" pt_clust_4="145.87809"></scales>
<rwgt>
<wgt id='bias'>   0.1000000E+01</wgt>
</rwgt>
<clustering>
<clus scale="  145.878">  2  4  1 -1</clus>
<clus scale="  145.878">  2  3  1 -1</clus>
</clustering>
</event>
<event>
 3   1  0.8512900E+003  0.9118800E+02  0.7546771E-02  0.1180022E+00
       -3   -1    0    0    0  501 -0.00000000000E+00  0.00000000000E+00  0.75554617180E+02  0.75554617180E+02  0.00000000000E+00 0.  1.
        3   -1    0    0  501    0  0.00000000000E+00 -0.00000000000E+00 -0.27514041016E+02  0.27514041016E+02  0.00000000000E+00 0. -1.
       23    1    1    2    0    0  0.00000000000E+00 -0.00000000000E+00  0.48040576164E+02  0.10306865820E+03  0.91188000000E+02 0.  1.
<scales pt_clust_3="100000.00000"></scales>
<rwgt>
<wgt id='bias'>   0.1000000E+01</wgt>
</rwgt>
<clustering>
<clus scale="   91.188">  2  3  1 -1</clus>
</clustering>
</event>
<event>
 5   3  0.8512900E+003  0.1166298E+03  0.7546771E-02  0.1137831E+00
       21   -1    0    0  503  502  0.00000000000E+00  0.00000000000E+00  0.10308344770E+03  0.10308344770E+03  0.00000000000E+00 0. -1.
       -5   -1    0    0    0  501 -0.00000000000E+00 -0.00000000000E+00 -0.56732927711E+02  0.56732927711E+02  0.00000000000E+00 0.  1.
       23    1    1    2    0    0  0.30089329839E+02  0.10318467872E+02 -0.96101889801E+00  0.96581641375E+02  0.91188000000E+02 0.  0.
       21    1    1    2  503  501 -0.30078163708E+02  0.90101042925E+00  0.29203753697E+02  0.41932886639E+02  0.00000000000E+00 0. -1.
       -5    1    1    2    0  502 -0.11166130427E-01 -0.11219478302E+02  0.18107785188E+02  0.21301847395E+02  0.00000000000E+00 0.  1.
<scales pt_clust_3="100000.00000" pt_clust_4="30.09166" pt_clust_5="100000.00000"></scales>
<rwgt>
<wgt id='bias'>   0.1000000E+01</wgt>
</rwgt>
<clustering>
<clus scale="   11.219">  3  5 -1 -1</clus>
<clus scale="   30.092">  1  4  2 -1</clus>
<clus scale="   30.092">  1  3  2 -1</clus>
</clustering>
</event>
<event>
 3   1  0.8512900E+003  0.9118800E+02  0.7546771E-02  0.1180022E+00
        1   -1    0    0  501    0  0.00000000000E+00  0.00000000000E+00  0.70324511637E+03  0.70324511637E+03  0.00000000000E+00 0. -1.
       -1   -1    0    0    0  501 -0.00000000000E+00 -0.00000000000E+00 -0.29560288264E+01  0.29560288264E+01  0.00000000000E+00 0.  1.
       23    1    1    2    0    0  0.00000000000E+00  0.00000000000E+00  0.70028908754E+03  0.70620114520E+03  0.91188000000E+02 0. -1.
<scales pt_clust_3="100000.00000"></scales>
<rwgt>
<wgt id='bias'>   0.1000000E+01</wgt>
</rwgt>
<clustering>
<clus scale="   91.188">  1  3  2 -1</clus>
</clustering>
</event>
<event>
 3   1  0.8512900E+003  0.9118800E+02  0.7546771E-02  0.1180022E+00
       -3   -1    0    0    0  501 -0.00000000000E+00  0.00000000000E+00  0.98970672438E+01  0.98970672438E+01  0.00000000000E+00 0.  1.
        3   -1    0    0  501    0  0.00000000000E+00 -0.00000000000E+00 -0.21004331736E+03  0.21004331736E+03  0.00000000000E+00 0. -1.
       23    1    1    2    0    0  0.00000000000E+00 -0.00000000000E+00 -0.20014625011E+03  0.21994038460E+03  0.91188000000E+02 0.  1.
<scales pt_clust_3="100000.00000"></scales>
<rwgt>
<wgt id='bias'>   0.1000000E+01</wgt>
</rwgt>
<clustering>
<clus scale="   91.188">  2  3  1 -1</clus>
</clustering>
</event>
<event>
 4   2  0.8512900E+003  0.9234844E+02  0.7546771E-02  0.1177775E+00
        2   -1    0    0  502    0 -0.00000000000E+00  0.00000000000E+00  0.55341585149E+02  0.55341585149E+02  0.00000000000E+00 0. -1.
       21   -1    0    0  501  502  0.00000000000E+00 -0.00000000000E+00 -0.54138905754E+02  0.54138905754E+02  0.00000000000E+00 0.  1.
       23    1    1    2    0    0  0.14518496523E+02 -0.14819000813E+01  0.92574680138E+01  0.92811286098E+02  0.91188000000E+02 0.  0.
        2    1    1    2  501    0 -0.14518496523E+02  0.14819000813E+01 -0.80547886189E+01  0.16669204805E+02  0.00000000000E+00 0. -1.
<scales pt_clust_3="100000.00000" pt_clust_4="14.59393"></scales>
<rwgt>
<wgt id='bias'>   0.1000000E+01</wgt>
</rwgt>
<clustering>
<clus scale="   14.594">  2  4  1 -1</clus>
<clus scale="   14.594">  2  3  1 -1</clus>
</clustering>
</event>
<event>
 5   3  0.8512900E+003  0.1135255E+03  0.7546771E-02  0.1142307E+00
        2   -1    0    0  501    0  0.00000000000E+00  0.00000000000E+00  0.95549022034E+01  0.95549022034E+01  0.00000000000E+00 0. -1.
        2   -1    0    0  502    0 -0.00000000000E+00 -0.00000000000E+00 -0.11294355911E+05  0.11294355911E+05  0.00000000000E+00 0. -1.
       23    1    1    2    0    0  0.25431940826E+02 -0.58366368816E+02 -0.61277107934E+04  0.61287199508E+04  0.91188000000E+02 0. -1.
        2    1    1    2  501    0 -0.38164448470E+02  0.58399669321E+02 -0.51613068041E+04  0.51617782762E+04  0.00000000000E+00 0. -1.
        2    1    1    2  502    0  0.12732507644E+02 -0.33300504199E-01  0.42165883741E+01  0.13412586527E+02  0.00000000000E+00 0. -1.
<scales pt_clust_3="100000.00000" pt_clust_4="67.62237" pt_clust_5="12.73255"></scales>
<rwgt>
<wgt id='bias'>   0.1000000E+01</wgt>
</rwgt>
<clustering>
<clus scale="   12.733">  1  5  2 -1</clus>
<clus scale="   67.622">  1  4  2 -1</clus>
<clus scale="   12.733">  1  3  2 -1</clus>
</clustering>
</event>
<event>
 5   3  0.8512900E+003  0.4621522E+03  0.7546771E-02  0.9487898E-01
       21   -1    0    0  501  502  0.00000000000E+00  0.00000000000E+00  0.14163330610E+04  0.14163330610E+04  0.00000000000E+00 0. -1.
        2   -1    0    0  503    0 -0.00000000000E+00 -0.00000000000E+00 -0.21178457260E+03  0.21178457260E+03  0.00000000000E+00 0. -1.
       23    1    1    2    0    0 -0.73174270414E+02  0.57807369198E+00 -0.19199940397E+03  0.22479730979E+03  0.91188000000E+02 0. -1.
       21    1    1    2  503  502  0.17480389898E+02  0.45342812375E+01  0.11640547217E+04  0.11641947942E+04  0.00000000000E+00 0. -1.
        2    1    1    2  501    0  0.55693880516E+02 -0.51123549295E+01  0.23249317071E+03  0.23912552964E+03  0.00000000000E+00 0. -1.
<scales pt_clust_3="100000.00000" pt_clust_4="18.05890" pt_clust_5="100000.00000"></scales>
<rwgt>
<wgt id='bias'>   0.1000000E+01</wgt>
</rwgt>
<clustering>
<clus scale="   18.059">  1  4  2 -1</clus>
<clus scale="   72.043">  3  5 -1 -1</clus>
<clus scale="   18.059">  1  3  2 -1</clus>
</clustering>
</event>
<event>
 5   3  0.8512900E+003  0.9420198E+02  0.7546771E-02  0.1174262E+00
       21   -1    0    0  503  502  0.00000000000E+00  0.00000000000E+00  0.65719509123E+03  0.65719509123E+03  0.00000000000E+00 0.  1.
       -4   -1    0    0    0  501 -0.00000000000E+00 -0.00000000000E+00 -0.32875848227E+02  0.32875848227E+02  0.00000000000E+00 0.  1.
       23    1    1    2    0    0  0.31970785878E+01  0.17698843546E+02  0.50660233473E+02  0.10585452741E+03  0.91188000000E+02 0.  0.
       21    1    1    2  503  501 -0.57667337328E+01  0.84141807994E+01  0.54598597933E+03  0.54608126070E+03  0.00000000000E+00 0.  1.
       -4    1    1    2    0  502  0.25696551449E+01 -0.26113024345E+02  0.27673030199E+02  0.38135151349E+02  0.00000000000E+00 0.  1.
<scales pt_clust_3="100000.00000" pt_clust_4="10.20067" pt_clust_5="23.63815"></scales>
<rwgt>
<wgt id='bias'>   0.1000000E+01</wgt>
</rwgt>
<clustering>
<clus scale="   10.201">  1  4  2 -1</clus>
<clus scale="   23.638">  1  5  2 -1</clus>
<clus scale="   10.201">  1  3  2 -1</clus>
</clustering>
</event>
<event>
 4   2  0.8512900E+003  0.9181608E+02  0.7546771E-02  0.1178801E+00
        1   -1    0    0  502    0 -0.00000000000E+00  0.00000000000E+00  0.38821206558E+01  0.38821206558E+01  0.00000000000E+00 0. -1.
       21   -1    0    0  501  502  0.00000000000E+00 -0.00000000000E+00 -0.94075920359E+03  0.94075920359E+03  0.00000000000E+00 0.  1.
       23    1    1    2    0    0  0.99532847754E+01  0.39842325944E+01 -0.54965573754E+03  0.55727158832E+03  0.91188000000E+02 0. -1.
        1    1    1    2  501    0 -0.99532847754E+01 -0.39842325944E+01 -0.38722134539E+03  0.38736973593E+03  0.00000000000E+00 0. -1.
<scales pt_clust_3="100000.00000" pt_clust_4="10.72110"></scales>
<rwgt>
<wgt id='bias'>   0.1000000E+01</wgt>
</rwgt>
<clustering>
<clus scale="   10.721">  2  4  1 -1</clus>
<clus scale="   10.721">  2  3  1 -1</clus>
</clustering>
</event>
<event>
 5   3  0.8512900E+003  0.1020918E+03  0.7546771E-02  0.1160265E+00
        2   -1    0    0  503    0 -0.00000000000E+00  0.00000000000E+00  0.16370558398E+02  0.16370558398E+02  0.00000000000E+00 0. -1.
       21   -1    0    0  501  502  0.00000000000E+00 -0.00000000000E+00 -0.17535273016E+04  0.17535273016E+04  0.00000000000E+00 0. -1.
       23    1    1    2    0    0 -0.15848246082E+02  0.42579946373E+02 -0.20015536310E+03  0.22459216251E+03  0.91188000000E+02 0. -1.
       21    1    1    2  503  502  0.32737543953E+01 -0.46818767859E+02 -0.12951033995E+03  0.13775210578E+03  0.00000000000E+00 0.  1.
        2    1    1    2  501    0  0.12574491687E+02  0.42388214857E+01 -0.14074910402E+04  0.14075535918E+04  0.00000000000E+00 0. -1.
<scales pt_clust_3="100000.00000" pt_clust_4="45.90735" pt_clust_5="13.26972"></scales>
<rwgt>
<wgt id='bias'>   0.1000000E+01</wgt>
</rwgt>
<clustering>
<clus scale="   13.270">  2  5  1 -1</clus>
<clus scale="   45.907">  2  4  1 -1</clus>
<clus scale="   13.270">  2  3  1 -1</clus>
</clustering>
</event>
<event>
 4   2  0.8512900E+003  0.9486992E+02  0.7546771E-02  0.1173018E+00
       -3   -1    0    0    0  501 -0.00000000000E+00  0.00000000000E+00  0.98950065608E+03  0.98950065608E+03  0.00000000000E+00 0.  1.
       21   -1    0    0  501  502  0.00000000000E+00 -0.00000000000E+00 -0.42721636846E+01  0.42721636846E+01  0.00000000000E+00 0. -1.
       23    1    1    2    0    0  0.17090734730E+02  0.19823140838E+02  0.58070110654E+03  0.58839958923E+03  0.91188000000E+02 0. -1.
       -3    1    1    2    0  502 -0.17090734730E+02 -0.19823140838E+02  0.40452738586E+03  0.40537323054E+03  0.00000000000E+00 0.  1.
<scales pt_clust_3="100000.00000" pt_clust_4="26.17348"></scales>
<rwgt>
<wgt id='bias'>   0.1000000E+01</wgt>
</rwgt>
<clustering>
<clus scale="   26.173">  2  4  1 -1</clus>
<clus scale="   26.173">  2  3  1 -1</clus>
</clustering>
</event>
<event>
 5   3  0.8512900E+003  0.1232003E+03  0.7546771E-02  0.1128843E+00
       21   -1    0    0  503  502  0.00000000000E+00  0.00000000000E+00  0.86052968493E+02  0.86052968493E+02  0.00000000000E+00 0. -1.
       -5   -1    0    0    0  501 -0.00000000000E+00 -0.00000000000E+00 -0.80163846439E+02  0.80163846439E+02  0.00000000000E+00 0.  1.
       23    1    1    2    0    0 -0.14810214811E+02  0.24877737249E+02 -0.62112169633E+01  0.95875308779E+02  0.91188000000E+02 0.  0.
       21    1    1    2  503  501 -0.26029443902E+01 -0.15750841396E+02  0.36008044426E+02  0.39388368684E+02  0.00000000000E+00 0. -1.
       -5    1    1    2    0  502  0.17413159201E+02 -0.91268958526E+01 -0.23907705409E+02  0.30953137469E+02  0.00000000000E+00 0.  1.
<scales pt_clust_3="100000.00000" pt_clust_4="15.96447" pt_clust_5="100000.00000"></scales>
<rwgt>
<wgt id='bias'>   0.1000000E+01</wgt>
</rwgt>
<clustering>
<clus scale="   15.964">  1  4  2 -1</clus>
<clus scale="   20.055">  3  5 -1 -1</clus>
<clus scale="   15.964">  1  3  2 -1</clus>
</clustering>
</event>
<event>
 3   1  0.8512900E+003  0.9118800E+02  0.7546771E-02  0.1180022E+00
       -1   -1    0    0    0  501 -0.00000000000E+00  0.00000000000E+00  0.10202454844E+01  0.10202454844E+01  0.00000000000E+00 0.  1.
        1   -1    0    0  501    0  0.00000000000E+00 -0.00000000000E+00 -0.20375614181E+04  0.20375614181E+04  0.00000000000E+00 0. -1.
       23    1    1    2    0    0  0.00000000000E+00 -0.00000000000E+00 -0.20365411726E+04  0.20385816636E+04  0.91188000000E+02 0.  1.
<scales pt_clust_3="100000.00000"></scales>
<rwgt>
<wgt id='bias'>   0.1000000E+01</wgt>
</rwgt>
<clustering>
<clus scale="   91.188">  2  3  1 -1</clus>
</clustering>
</event>
<event>
 5   3  0.8512900E+003  0.1863480E+03  0.7546771E-02  0.1065422E+00
       21   -1    0    0  503  502  0.00000000000E+00  0.00000000000E+00  0.63480896525E+01  0.63480896525E+01  0.00000000000E+00 0. -1.
        2   -1    0    0  502    0 -0.00000000000E+00 -0.00000000000E+00 -0.13675604623E+04  0.13675604623E+04  0.00000000000E+00 0. -1.
       23    1    1    2    0    0 -0.25442448226E+02  0.17875047947E+02 -0.12226429499E+04  0.12264329863E+04  0.91188000000E+02 0. -1.
       21    1    1    2  503  501  0.19385174444E+02 -0.14431168964E+02 -0.13841197946E+03  0.14050594181E+03  0.00000000000E+00 0. -1.
        2    1    1    2  501    0  0.60572737820E+01 -0.34438789831E+01 -0.15744325038E+00  0.69696238419E+01  0.00000000000E+00 0. -1.
<scales pt_clust_3="100000.00000" pt_clust_4="21.34842" pt_clust_5="100000.00000"></scales>
<rwgt>
<wgt id='bias'>   0.1000000E+01</wgt>
</rwgt>
<clustering>
<clus scale="   21.348">  4  5 -1 -1</clus>
<clus scale="   50.473">  3  4 -1 -1</clus>
<clus scale="  186.348">  1  3  2 -1</clus>
</clustering>
</event>
<event>
 4   2  0.8512900E+003  0.9189928E+02  0.7546771E-02  0.1178640E+00
        3   -1    0    0  502    0 -0.00000000000E+00  0.00000000000E+00  0.26254425827E+03  0.26254425827E+03  0.00000000000E+00 0. -1.
       21   -1    0    0  501  502  0.00000000000E+00 -0.00000000000E+00 -0.15411811288E+02  0.15411811288E+02  0.00000000000E+00 0.  1.
       23    1    1    2    0    0 -0.22985879274E+00  0.11409357064E+02  0.24985866613E+03  0.26622327217E+03  0.91188000000E+02 0. -1.
        3    1    1    2  501    0  0.22985879274E+00 -0.11409357064E+02 -0.27262191441E+01  0.11732797385E+02  0.00000000000E+00 0. -1.
<scales pt_clust_3="100000.00000" pt_clust_4="11.41167"></scales>
<rwgt>
<wgt id='bias'>   0.1000000E+01</wgt>
</rwgt>
<clustering>
<clus scale="   11.412">  2  4  1 -1</clus>
<clus scale="   11.412">  2  3  1 -1</clus>
</clustering>
</event>
<event>
 3   1  0.8512900E+003  0.9118800E+02  0.7546771E-02  0.1180022E+00
       -2   -1    0    0    0  501 -0.00000000000E+00  0.00000000000E+00  0.61894066359E+00  0.61894066359E+00  0.00000000000E+00 0.  1.
        2   -1    0    0  501    0  0.00000000000E+00 -0.00000000000E+00 -0.33586625638E+04  0.33586625638E+04  0.00000000000E+00 0. -1.
       23    1    1    2    0    0  0.00000000000E+00 -0.00000000000E+00 -0.33580436231E+04  0.33592815045E+04  0.91188000000E+02 0.  1.
<scales pt_clust_3="100000.00000"></scales>
<rwgt>
<wgt id='bias'>   0.1000000E+01</wgt>
</rwgt>
<clustering>
<clus scale="   91.188">  2  3  1 -1</clus>
</clustering>
</event>
<event>
 3   1  0.8512900E+003  0.9118800E+02  0.7546771E-02  0.1180022E+00
        1   -1    0    0  501    0  0.00000000000E+00  0.00000000000E+00  0.91977690640E+04  0.91977690640E+04  0.00000000000E+00 0. -1.
       -1   -1    0    0    0  501 -0.00000000000E+00 -0.00000000000E+00 -0.22601272347E+00  0.22601272347E+00  0.00000000000E+00 0.  1.
       23    1    1    2    0    0  0.00000000000E+00  0.00000000000E+00  0.91975430513E+04  0.91979950768E+04  0.91188000000E+02 0. -1.
<scales pt_clust_3="100000.00000"></scales>
<rwgt>
<wgt id='bias'>   0.1000000E+01</wgt>
</rwgt>
<clustering>
<clus scale="   91.188">  1  3  2 -1</clus>
</clustering>
</event>
<event>
 3   1  0.8512900E+003  0.9118800E+02  0.7546771E-02  0.1180022E+00
        5   -1    0    0  501    0  0.00000000000E+00  0.00000000000E+00  0.59745777625E+03  0.59745777625E+03  0.00000000000E+00 0. -1.
       -5   -1    0    0    0  501 -0.00000000000E+00 -0.00000000000E+00 -0.34794305449E+01  0.34794305449E+01  0.00000000000E+00 0.  1.
       23    1    1    2    0    0  0.00000000000E+00  0.00000000000E+00  0.59397834570E+03  0.60093720679E+03  0.91188000000E+02 0. -1.
<scales pt_clust_3="100000.00000"></scales>
<rwgt>
<wgt id='bias'>   0.1000000E+01</wgt>
</rwgt>
<clustering>
<clus scale="   91.188">  1  3  2 -1</clus>
</clustering>
</event>
<event>
 5   3  0.8512900E+003  0.1401197E+03  0.7546771E-02  0.1108314E+00
       -3   -1    0    0    0  501 -0.00000000000E+00  0.00000000000E+00  0.31362916165E+02  0.31362916165E+02  0.00000000000E+00 0.  1.
        2   -1    0    0  501    0  0.00000000000E+00 -0.00000000000E+00 -0.40999223464E+04  0.40999223464E+04  0.00000000000E+00 0.  1.
       23    1    1    2    0    0 -0.22029312125E+02  0.69953638024E+02 -0.33058014787E+04  0.33078720456E+04  0.91188000000E+02 0.  1.
        2    1    1    2  502    0 -0.83630567223E+02 -0.44705284256E+02 -0.68069028104E+03  0.68726406346E+03  0.00000000000E+00 0.  1.
       -3    1    1    2    0  502  0.10565987935E+03 -0.25248353768E+02 -0.82067670566E+02  0.13614915359E+03  0.00000000000E+00 0.  1.
<scales pt_clust_3="100000.00000" pt_clust_4="94.82950" pt_clust_5="106.38748"></scales>
<rwgt>
<wgt id='bias'>   0.1000000E+01</wgt>
</rwgt>
<clustering>
<clus scale="   94.830">  2  4  1 -1</clus>
<clus scale="  106.387">  2  5  1 -1</clus>
<clus scale="   94.830">  2  3  1 -1</clus>
</clustering>
</event>
<event>
 3   1  0.8512900E+003  0.9118800E+02  0.7546771E-02  0.1180022E+00
        2   -1    0    0  501    0  0.00000000000E+00  0.00000000000E+00  0.87912621940E+02  0.87912621940E+02  0.00000000000E+00 0.  1.
       -2   -1    0    0    0  501 -0.00000000000E+00 -0.00000000000E+00 -0.23646352368E+02  0.23646352368E+02  0.00000000000E+00 0. -1.
       23    1    1    2    0    0  0.00000000000E+00  0.00000000000E+00  0.64266269572E+02  0.11155897431E+03  0.91188000000E+02 0.  1.
<scales pt_clust_3="100000.00000"></scales>
<rwgt>
<wgt id='bias'>   0.1000000E+01</wgt>
</rwgt>
<clustering>
<clus scale="   91.188">  1  3  2 -1</clus>
</clustering>
</event>
<event>
 4   2  0.8512900E+003  0.9530658E+02  0.7546771E-02  0.1172211E+00
        4   -1    0    0  502    0 -0.00000000000E+00  0.00000000000E+00  0.28691209893E+01  0.28691209893E+01  0.00000000000E+00 0.  1.
       21   -1    0    0  501  502  0.00000000000E+00 -0.00000000000E+00 -0.13382665617E+04  0.13382665617E+04  0.00000000000E+00 0. -1.
       23    1    1    2    0    0 -0.22351743631E+02  0.16385760480E+02 -0.96125660608E+03  0.96596977575E+03  0.91188000000E+02 0.  1.
        4    1    1    2  501    0  0.22351743631E+02 -0.16385760480E+02 -0.37414083461E+03  0.37516590692E+03  0.00000000000E+00 0.  1.
<scales pt_clust_3="100000.00000" pt_clust_4="27.71450"></scales>
<rwgt>
<wgt id='bias'>   0.1000000E+01</wgt>
</rwgt>
<clustering>
<clus scale="   27.715">  2  4  1 -1</clus>
<clus scale="   27.715">  2  3  1 -1</clus>
</clustering>
</event>
<event>
 3   1  0.8512900E+003  0.9118800E+02  0.7546771E-02  0.1180022E+00
       -3   -1    0    0    0  501 -0.00000000000E+00  0.00000000000E+00  0.18028033288E+02  0.18028033288E+02  0.00000000000E+00 0.  1.
        3   -1    0    0  501    0  0.00000000000E+00 -0.00000000000E+00 -0.11531001762E+03  0.11531001762E+03  0.00000000000E+00 0. -1.
       23    1    1    2    0    0  0.00000000000E+00 -0.00000000000E+00 -0.97281984330E+02  0.13333805091E+03  0.91188000000E+02 0.  1.
<scales pt_clust_3="100000.00000"></scales>
<rwgt>
<wgt id='bias'>   0.1000000E+01</wgt>
</rwgt>
<clustering>
<clus scale="   91.188">  2  3  1 -1</clus>
</clustering>
</event>
<event>
 5   3  0.8512900E+003  0.1362534E+02  0.7546771E-02  0.1178060E+00
       -5   -1    0    0    0  501 -0.00000000000E+00  0.00000000000E+00  0.36526359695E+01  0.36526359695E+01  0.00000000000E+00 0.  1.
       21   -1    0    0  503  502  0.00000000000E+00 -0.00000000000E+00 -0.47047952731E+04  0.47047952731E+04  0.00000000000E+00 0.  1.
       23    1    1    2    0    0 -0.97201666636E+01 -0.87458047431E+01 -0.71276626815E+03  0.71869463272E+03  0.91188000000E+02 0.  1.
       21    1    1    2  503  501 -0.16694161360E+01  0.14118831116E+02 -0.73817024417E+02  0.75173675153E+02  0.00000000000E+00 0. -1.
       -5    1    1    2    0  502  0.11389582800E+02 -0.53730263724E+01 -0.39145593446E+04  0.39145796012E+04  0.00000000000E+00 0.  1.
<scales pt_clust_3="100000.00000" pt_clust_4="13.62534" pt_clust_5="12.59333"></scales>
<rwgt>
<wgt id='bias'>   0.1000000E+01</wgt>
</rwgt>
<clustering>
<clus scale="   12.593">  2  5  1 -1</clus>
<clus scale="   13.625">  1  4  2 -1</clus>
<clus scale="   12.593">  2  3  1 -1</clus>
</clustering>
</event>
<event>
 3   1  0.8512900E+003  0.9118800E+02  0.7546771E-02  0.1180022E+00
        1   -1    0    0  501    0  0.00000000000E+00  0.00000000000E+00  0.35642922378E+02  0.35642922378E+02  0.00000000000E+00 0. -1.
       -1   -1    0    0    0  501 -0.00000000000E+00 -0.00000000000E+00 -0.58323299475E+02  0.58323299475E+02  0.00000000000E+00 0.  1.
       23    1    1    2    0    0  0.00000000000E+00  0.00000000000E+00 -0.22680377098E+02  0.93966221853E+02  0.91188000000E+02 0. -1.
<scales pt_clust_3="100000.00000"></scales>
<rwgt>
<wgt id='bias'>   0.1000000E+01</wgt>
</rwgt>
<clustering>
<clus scale="   91.188">  1  3  2 -1</clus>
</clustering>
</event>
<event>
 4   2  0.8512900E+003  0.9309593E+02  0.7546771E-02  0.1176347E+00
        5   -1    0    0  502    0 -0.00000000000E+00  0.00000000000E+00  0.60107590573E+03  0.60107590573E+03  0.00000000000E+00 0. -1.
       21   -1    0    0  501  502  0.00000000000E+00 -0.00000000000E+00 -0.96361789692E+01  0.96361789692E+01  0.00000000000E+00 0.  1.
       23    1    1    2    0    0  0.93449050733E+01 -0.16256498140E+02  0.22112786620E+03  0.23992579173E+03  0.91188000000E+02 0.  1.
        5    1    1    2  501    0 -0.93449050733E+01  0.16256498140E+02  0.37031186056E+03  0.37078629297E+03  0.00000000000E+00 0. -1.
<scales pt_clust_3="100000.00000" pt_clust_4="18.75104"></scales>
<rwgt>
<wgt id='bias'>   0.1000000E+01</wgt>
</rwgt>
<clustering>
<clus scale="   18.751">  2  4  1 -1</clus>
<clus scale="   18.751">  2  3  1 -1</clus>
</clustering>
</event>
<event>
 5   3  0.8512900E+003  0.1283408E+03  0.7546771E-02  0.1122236E+00
       21   -1    0    0  501  502  0.00000000000E+00  0.00000000000E+00  0.81877013502E+02  0.81877013502E+02  0.00000000000E+00 0.  1.
       -2   -1    0    0    0  501 -0.00000000000E+00 -0.00000000000E+00 -0.20003501840E+03  0.20003501840E+03  0.00000000000E+00 0.  1.
       23    1    1    2    0    0 -0.84393020406E+02  0.32154774288E+02 -0.13306238784E+03  0.18487012145E+03  0.91188000000E+02 0.  1.
       21    1    1    2  503  502  0.45356573754E+02 -0.66290443606E+01 -0.54334628421E+01  0.46159349327E+02  0.00000000000E+00 0. -1.
       -2    1    1    2    0  503  0.39036446652E+02 -0.25525729927E+02  0.20337845785E+02  0.50882561126E+02  0.00000000000E+00 0.  1.
<scales pt_clust_3="100000.00000" pt_clust_4="31.95307" pt_clust_5="95.89052"></scales>
<rwgt>
<wgt id='bias'>   0.1000000E+01</wgt>
</rwgt>
<clustering>
<clus scale="   31.953">  4  5 -1 -1</clus>
<clus scale="   95.891">  1  4  2 -1</clus>
<clus scale="   95.891">  1  3  2 -1</clus>
</clustering>
</event>
<event>
 3   1  0.8512900E+003  0.9118800E+02  0.7546771E-02  0.1180022E+00
        4   -1    0    0  501    0  0.00000000000E+00  0.00000000000E+00  0.23392378327E+00  0.23392378327E+00  0.00000000000E+00 0. -1.
       -4   -1    0    0    0  501 -0.00000000000E+00 -0.00000000000E+00 -0.88867100511E+04  0.88867100511E+04  0.00000000000E+00 0.  1.
       23    1    1    2    0    0  0.00000000000E+00  0.00000000000E+00 -0.88864761273E+04  0.88869439749E+04  0.91188000000E+02 0. -1.
<scales pt_clust_3="100000.00000"></scales>
<rwgt>
<wgt id='bias'>   0.1000000E+01</wgt>
</rwgt>
<clustering>
<clus scale="   91.188">  1  3  2 -1</clus>
</clustering>
</event>
<event>
 5   3  0.8512900E+003  0.3686831E+03  0.7546771E-02  0.9753144E-01
        2   -1    0    0  502    0 -0.00000000000E+00  0.00000000000E+00  0.32025494694E+04  0.32025494694E+04  0.00000000000E+00 0. -1.
       21   -1    0    0  503  502  0.00000000000E+00 -0.00000000000E+00 -0.10610862967E+02  0.10610862967E+02  0.00000000000E+00 0. -1.
       23    1    1    2    0    0  0.23866466908E+02 -0.11355353387E+03  0.28067678108E+04  0.28106449097E+04  0.91188000000E+02 0. -1.
       21    1    1    2  503  501 -0.21970833118E+02  0.71836114824E+02  0.24600403705E+03  0.25721806147E+03  0.00000000000E+00 0. -1.
        2    1    1    2  501    0 -0.18956337899E+01  0.41717419042E+02  0.13916675861E+03  0.14529736123E+03  0.00000000000E+00 0. -1.
<scales pt_clust_3="100000.00000" pt_clust_4="10.49436" pt_clust_5="100000.00000"></scales>
<rwgt>
<wgt id='bias'>   0.1000000E+01</wgt>
</rwgt>
<clustering>
<clus scale="   10.494">  4  5 -1 -1</clus>
<clus scale="  116.885">  3  4 -1 -1</clus>
<clus scale="  368.683">  2  3  1 -1</clus>
</clustering>
</event>
<event>
 3   1  0.8512900E+003  0.9118800E+02  0.7546771E-02  0.1180022E+00
        5   -1    0    0  501    0  0.00000000000E+00  0.00000000000E+00  0.84906973480E+02  0.84906973480E+02  0.00000000000E+00 0. -1.
       -5   -1    0    0    0  501 -0.00000000000E+00 -0.00000000000E+00 -0.24483416978E+02  0.24483416978E+02  0.00000000000E+00 0.  1.
       23    1    1    2    0    0  0.00000000000E+00  0.00000000000E+00  0.60423556502E+02  0.10939039046E+03  0.91188000000E+02 0. -1.
<scales pt_clust_3="100000.00000"></scales>
<rwgt>
<wgt id='bias'>   0.1000000E+01</wgt>
</rwgt>
<clustering>
<clus scale="   91.188">  1  3  2 -1</clus>
</clustering>
</event>
<event>
 3   1  0.8512900E+003  0.9118800E+02  0.7546771E-02  0.1180022E+00
       -5   -1    0    0    0  501 -0.00000000000E+00  0.00000000000E+00  0.13084461420E+04  0.13084461420E+04  0.00000000000E+00 0.  1.
        5   -1    0    0  501    0  0.00000000000E+00 -0.00000000000E+00 -0.15887645424E+01  0.15887645424E+01  0.00000000000E+00 0. -1.
       23    1    1    2    0    0  0.00000000000E+00 -0.00000000000E+00  0.13068573775E+04  0.13100349065E+04  0.91188000000E+02 0.  1.
<scales pt_clust_3="100000.00000"></scales>
<rwgt>
<wgt id='bias'>   0.1000000E+01</wgt>
</rwgt>
<clustering>
<clus scale="   91.188">  2  3  1 -1</clus>
</clustering>
</event>
<event>
 4   2  0.8512900E+003  0.9250625E+02  0.7546771E-02  0.1177472E+00
       21   -1    0    0  501  502  0.00000000000E+00  0.00000000000E+00  0.13941454454E+02  0.13941454454E+02  0.00000000000E+00 0.  1.
        3   -1    0    0  502    0 -0.00000000000E+00 -0.00000000000E+00 -0.21838103250E+03  0.21838103250E+03  0.00000000000E+00 0. -1.
       23    1    1    2    0    0  0.15476806418E+02  0.16194136099E+01 -0.18888069675E+03  0.21031719612E+03  0.91188000000E+02 0.  0.
        3    1    1    2  501    0 -0.15476806418E+02 -0.16194136099E+01 -0.15558881299E+02  0.22005290833E+02  0.00000000000E+00 0. -1.
<scales pt_clust_3="100000.00000" pt_clust_4="15.56130"></scales>
<rwgt>
<wgt id='bias'>   0.1000000E+01</wgt>
</rwgt>
<clustering>
<clus scale="   15.561">  1  4  2 -1</clus>
<clus scale="   15.561">  1  3  2 -1</clus>
</clustering>
</event>
<event>
 5   3  0.8512900E+003  0.1058442E+03  0.7546771E-02  0.1154095E+00
       21   -1    0    0  501  502  0.00000000000E+00  0.00000000000E+00  0.74127015137E+04  0.74127015137E+04  0.00000000000E+00 0. -1.
       -2   -1    0    0    0  501 -0.00000000000E+00 -0.00000000000E+00 -0.24343475936E+01  0.24343475936E+01  0.00000000000E+00 0.  1.
       23    1    1    2    0    0  0.15824717606E+02  0.24181828156E+02  0.10219222200E+04  0.10263895253E+04  0.91188000000E+02 0.  1.
       21    1    1    2  503  502 -0.65774653203E+01 -0.27369551043E+02  0.62469733512E+04  0.62470367700E+04  0.00000000000E+00 0. -1.
       -2    1    1    2    0  503 -0.92472522855E+01  0.31877228874E+01  0.14137159487E+03  0.14170956597E+03  0.00000000000E+00 0.  1.
<scales pt_clust_3="100000.00000" pt_clust_4="28.14881" pt_clust_5="100000.00000"></scales>
<rwgt>
<wgt id='bias'>   0.1000000E+01</wgt>
</rwgt>
<clustering>
<clus scale="    9.781">  3  5 -1 -1</clus>
<clus scale="   28.149">  1  4  2 -1</clus>
<clus scale="   28.149">  1  3  2 -1</clus>
</clustering>
</event>
<event>
 5   3  0.8512900E+003  0.9206729E+02  0.7546771E-02  0.1178316E+00
        5   -1    0    0  503    0 -0.00000000000E+00  0.00000000000E+00  0.15031452288E+01  0.15031452288E+01  0.00000000000E+00 0. -1.
       21   -1    0    0  501  502  0.00000000000E+00 -0.00000000000E+00 -0.29553338344E+04  0.29553338344E+04  0.00000000000E+00 0.  1.
       23    1    1    2    0    0  0.60912179556E+01 -0.79271511761E+01 -0.15542932880E+04  0.15569980151E+04  0.91188000000E+02 0. -1.
       21    1    1    2  503  502  0.95262054040E+01  0.93359014205E+01 -0.67808770535E+03  0.67821887602E+03  0.00000000000E+00 0.  1.
        5    1    1    2  501    0 -0.15617423360E+02 -0.14087502444E+01 -0.72144969577E+03  0.72162008843E+03  0.00000000000E+00 0. -1.
<scales pt_clust_3="100000.00000" pt_clust_4="13.33820" pt_clust_5="12.69391"></scales>
<rwgt>
<wgt id='bias'>   0.1000000E+01</wgt>
</rwgt>
<clustering>
<clus scale="   13.338">  2  4  1 -1</clus>
<clus scale="   12.694">  2  5  1 -1</clus>
<clus scale="   13.338">  2  3  1 -1</clus>
</clustering>
</event>
<event>
 3   1  0.8512900E+003  0.9118800E+02  0.7546771E-02  0.1180022E+00
       -1   -1    0    0    0  501 -0.00000000000E+00  0.00000000000E+00  0.11495032079E+03  0.11495032079E+03  0.00000000000E+00 0.  1.
        1   -1    0    0  501    0  0.00000000000E+00 -0.00000000000E+00 -0.18084445713E+02  0.18084445713E+02  0.00000000000E+00 0. -1.
       23    1    1    2    0    0  0.00000000000E+00 -0.00000000000E+00  0.96865875073E+02  0.13303476650E+03  0.91188000000E+02 0.  1.
<scales pt_clust_3="100000.00000"></scales>
<rwgt>
<wgt id='bias'>   0.1000000E+01</wgt>
</rwgt>
<clustering>
<clus scale="   91.188">  2  3  1 -1</clus>
</clustering>
</event>
<event>
 3   1  0.8512900E+003  0.9118800E+02  0.7546771E-02  0.1180022E+00
        1   -1    0    0  501    0  0.00000000000E+00  0.00000000000E+00  0.95651156781E+01  0.95651156781E+01  0.00000000000E+00 0.  1.
       -1   -1    0    0    0  501 -0.00000000000E+00 -0.00000000000E+00 -0.21733274389E+03  0.21733274389E+03  0.00000000000E+00 0. -1.
       23    1    1    2    0    0  0.00000000000E+00  0.00000000000E+00 -0.20776762822E+03  0.22689785957E+03  0.91188000000E+02 0.  1.
<scales pt_clust_3="100000.00000"></scales>
<rwgt>
<wgt id='bias'>   0.1000000E+01</wgt>
</rwgt>
<clustering>
<clus scale="   91.188">  1  3  2 -1</clus>
</clustering>
</event>
<event>
 3   1  0.8512900E+003  0.9118800E+02  0.7546771E-02  0.1180022E+00
        1   -1    0    0  501    0  0.00000000000E+00  0.00000000000E+00  0.57835007276E+01  0.57835007276E+01  0.00000000000E+00 0. -1.
       -1   -1    0    0    0  501 -0.00000000000E+00 -0.00000000000E+00 -0.35943850168E+03  0.35943850168E+03  0.00000000000E+00 0.  1.
       23    1    1    2    0    0  0.00000000000E+00  0.00000000000E+00 -0.35365500095E+03  0.36522200241E+03  0.91188000000E+02 0. -1.
<scales pt_clust_3="100000.00000"></scales>
<rwgt>
<wgt id='bias'>   0.1000000E+01</wgt>
</rwgt>
<clustering>
<clus scale="   91.188">  1  3  2 -1</clus>
</clustering>
</event>
<event>
 3   1  0.8512900E+003  0.9118800E+02  0.7546771E-02  0.1180022E+00
        5   -1    0    0  501    0  0.00000000000E+00  0.00000000000E+00  0.69703113529E+02  0.69703113529E+02  0.00000000000E+00 0. -1.
       -5   -1    0    0    0  501 -0.00000000000E+00 -0.00000000000E+00 -0.29823816050E+02  0.29823816050E+02  0.00000000000E+00 0.  1.
       23    1    1    2    0    0  0.00000000000E+00  0.00000000000E+00  0.39879297479E+02  0.99526929579E+02  0.91188000000E+02 0. -1.
<scales pt_clust_3="100000.00000"></scales>
<rwgt>
<wgt id='bias'>   0.1000000E+01</wgt>
</rwgt>
<clustering>
<clus scale="   91.188">  1  3  2 -1</clus>
</clustering>
</event>
<event>
 4   2  0.8512900E+003  0.3900499E+03  0.7546771E-02  0.9685634E-01
        5   -1    0    0  502    0 -0.00000000000E+00  0.00000000000E+00  0.34923952522E+03  0.34923952522E+03  0.00000000000E+00 0. -1.
       21   -1    0    0  501  502  0.00000000000E+00 -0.00000000000E+00 -0.10890731301E+03  0.10890731301E+03  0.00000000000E+00 0. -1.
       23    1    1    2    0    0 -0.92180233512E+02 -0.14325853335E+03  0.20954443070E+03  0.28503389730E+03  0.91188000000E+02 0. -1.
        5    1    1    2  501    0  0.92180233512E+02  0.14325853335E+03  0.30787781519E+02  0.17311294093E+03  0.00000000000E+00 0. -1.
<scales pt_clust_3="100000.00000" pt_clust_4="100000.00000"></scales>
<rwgt>
<wgt id='bias'>   0.1000000E+01</wgt>
</rwgt>
<clustering>
<clus scale="  170.353">  3  4 -1 -1</clus>
<clus scale="  390.050">  2  3  1 -1</clus>
</clustering>
</event>
<event>
 4   2  0.8512900E+003  0.1229728E+03  0.7546771E-02  0.1129144E+00
       21   -1    0    0  501  502  0.00000000000E+00  0.00000000000E+00  0.10537202365E+01  0.10537202365E+01  0.00000000000E+00 0. -1.
        2   -1    0    0  502    0 -0.00000000000E+00 -0.00000000000E+00 -0.35878363499E+04  0.35878363499E+04  0.00000000000E+00 0. -1.
       23    1    1    2    0    0 -0.14296952863E+02 -0.12335002532E+02 -0.33700714587E+04  0.33713578040E+04  0.91188000000E+02 0. -1.
        2    1    1    2  501    0  0.14296952863E+02  0.12335002532E+02 -0.21671117104E+03  0.21753226612E+03  0.00000000000E+00 0. -1.
<scales pt_clust_3="100000.00000" pt_clust_4="100000.00000"></scales>
<rwgt>
<wgt id='bias'>   0.1000000E+01</wgt>
</rwgt>
<clustering>
<clus scale="   18.883">  3  4 -1 -1</clus>
<clus scale="  122.973">  1  3  2 -1</clus>
</clustering>
</event>
<event>
 4   2  0.8512900E+003  0.9209237E+02  0.7546771E-02  0.1178268E+00
       21   -1    0    0  501  502  0.00000000000E+00  0.00000000000E+00  0.12495125185E+02  0.12495125185E+02  0.00000000000E+00 0. -1.
        1   -1    0    0  502    0 -0.00000000000E+00 -0.00000000000E+00 -0.69931604515E+03  0.69931604515E+03  0.00000000000E+00 0. -1.
       23    1    1    2    0    0 -0.90697863580E+01  0.91373731509E+01 -0.69187727559E+03  0.69797934671E+03  0.91188000000E+02 0. -1.
        1    1    1    2  501    0  0.90697863580E+01 -0.91373731509E+01  0.50563556218E+01  0.13831823627E+02  0.00000000000E+00 0. -1.
<scales pt_clust_3="100000.00000" pt_clust_4="12.87449"></scales>
<rwgt>
<wgt id='bias'>   0.1000000E+01</wgt>
</rwgt>
<clustering>
<clus scale="   12.874">  1  4  2 -1</clus>
<clus scale="   12.874">  1  3  2 -1</clus>
</clustering>
</event>
<event>
 4   2  0.8512900E+003  0.9589473E+02  0.7546771E-02  0.1171132E+00
        5   -1    0    0  502    0 -0.00000000000E+00  0.00000000000E+00  0.48928905517E+02  0.48928905517E+02  0.00000000000E+00 0. -1.
       21   -1    0    0  501  502  0.00000000000E+00 -0.00000000000E+00 -0.87008279354E+02  0.87008279354E+02  0.00000000000E+00 0. -1.
       23    1    1    2    0    0 -0.29536532741E+02 -0.28533280997E+01 -0.12397140638E+02  0.96692754059E+02  0.91188000000E+02 0. -1.
        5    1    1    2  501    0  0.29536532741E+02  0.28533280997E+01 -0.25682233200E+02  0.39244430812E+02  0.00000000000E+00 0. -1.
<scales pt_clust_3="100000.00000" pt_clust_4="29.67403"></scales>
<rwgt>
<wgt id='bias'>   0.1000000E+01</wgt>
</rwgt>
<clustering>
<clus scale="   29.674">  2  4  1 -1</clus>
<clus scale="   29.674">  2  3  1 -1</clus>
</clustering>
</event>
<event>
 3   1  0.8512900E+003  0.9118800E+02  0.7546771E-02  0.1180022E+00
       -3   -1    0    0    0  501 -0.00000000000E+00  0.00000000000E+00  0.25344245062E+04  0.25344245062E+04  0.00000000000E+00 0.  1.
        3   -1    0    0  501    0  0.00000000000E+00 -0.00000000000E+00 -0.82023071942E+00  0.82023071942E+00  0.00000000000E+00 0. -1.
       23    1    1    2    0    0  0.00000000000E+00 -0.00000000000E+00  0.25336042754E+04  0.25352447369E+04  0.91188000000E+02 0.  1.
<scales pt_clust_3="100000.00000"></scales>
<rwgt>
<wgt id='bias'>   0.1000000E+01</wgt>
</rwgt>
<clustering>
<clus scale="   91.188">  2  3  1 -1</clus>
</clustering>
</event>
<event>
 4   2  0.8512900E+003  0.1220772E+03  0.7546771E-02  0.1130335E+00
       -4   -1    0    0    0  501 -0.00000000000E+00  0.00000000000E+00  0.37821877146E+02  0.37821877146E+02  0.00000000000E+00 0. -1.
        4   -1    0    0  502    0  0.00000000000E+00 -0.00000000000E+00 -0.60700654042E+03  0.60700654042E+03  0.00000000000E+00 0.  1.
       23    1    1    2    0    0 -0.79897877733E+02  0.14280419991E+02 -0.54732246258E+03  0.56077154943E+03  0.91188000000E+02 0.  1.
       21    1    1    2  502  501  0.79897877733E+02 -0.14280419991E+02 -0.21862200691E+02  0.84056868134E+02  0.00000000000E+00 0. -1.
<scales pt_clust_3="100000.00000" pt_clust_4="81.16404"></scales>
<rwgt>
<wgt id='bias'>   0.1000000E+01</wgt>
</rwgt>
<clustering>
<clus scale="   81.164">  1  4  2 -1</clus>
<clus scale="  122.077">  2  3  1 -1</clus>
</clustering>
</event>
<event>
 5   3  0.8512900E+003  0.2634776E+03  0.7546771E-02  0.1017660E+00
       -1   -1    0    0    0  501 -0.00000000000E+00  0.00000000000E+00  0.62763148403E+03  0.62763148403E+03  0.00000000000E+00 0.  1.
       21   -1    0    0  503  502  0.00000000000E+00 -0.00000000000E+00 -0.34861047228E+03  0.34861047228E+03  0.00000000000E+00 0. -1.
       23    1    1    2    0    0  0.24575390334E+02  0.26941934885E+02  0.59678286996E+03  0.60480977413E+03  0.91188000000E+02 0.  0.
       21    1    1    2  503  501  0.25440678708E+01  0.15307701332E+02 -0.32076288545E+03  0.32113801812E+03  0.00000000000E+00 0. -1.
       -1    1    1    2    0  502 -0.27119458204E+02 -0.42249636217E+02  0.30010272396E+01  0.50294164058E+02  0.00000000000E+00 0.  1.
<scales pt_clust_3="100000.00000" pt_clust_4="15.51767" pt_clust_5="100000.00000"></scales>
<rwgt>
<wgt id='bias'>   0.1000000E+01</wgt>
</rwgt>
<clustering>
<clus scale="   15.518">  2  4  1 -1</clus>
<clus scale="   38.376">  3  5 -1 -1</clus>
<clus scale="   15.518">  2  3  1 -1</clus>
</clustering>
</event>
<event>
 3   1  0.8512900E+003  0.9118800E+02  0.7546771E-02  0.1180022E+00
        1   -1    0    0  501    0  0.00000000000E+00  0.00000000000E+00  0.31343211438E+04  0.31343211438E+04  0.00000000000E+00 0. -1.
       -1   -1    0    0    0  501 -0.00000000000E+00 -0.00000000000E+00 -0.66324181237E+00  0.66324181237E+00  0.00000000000E+00 0.  1.
       23    1    1    2    0    0  0.00000000000E+00  0.00000000000E+00  0.31336579020E+04  0.31349843857E+04  0.91188000000E+02 0. -1.
<scales pt_clust_3="100000.00000"></scales>
<rwgt>
<wgt id='bias'>   0.1000000E+01</wgt>
</rwgt>
<clustering>
<clus scale="   91.188">  1  3  2 -1</clus>
</clustering>
</event>
<event>
 4   2  0.8512900E+003  0.9186850E+02  0.7546771E-02  0.1178700E+00
        1   -1    0    0  502    0 -0.00000000000E+00  0.00000000000E+00  0.85984453491E+01  0.85984453491E+01  0.00000000000E+00 0. -1.
       21   -1    0    0  501  502  0.00000000000E+00 -0.00000000000E+00 -0.31911406136E+03  0.31911406136E+03  0.00000000000E+00 0.  1.
       23    1    1    2    0    0 -0.11088396052E+02 -0.12721281644E+01 -0.25395122344E+03  0.27005748660E+03  0.91188000000E+02 0.  0.
        1    1    1    2  501    0  0.11088396052E+02  0.12721281644E+01 -0.56564392576E+02  0.57655020116E+02  0.00000000000E+00 0. -1.
<scales pt_clust_3="100000.00000" pt_clust_4="11.16113"></scales>
<rwgt>
<wgt id='bias'>   0.1000000E+01</wgt>
</rwgt>
<clustering>
<clus scale="   11.161">  2  4  1 -1</clus>
<clus scale="   11.161">  2  3  1 -1</clus>
</clustering>
</event>
<event>
 5   3  0.8512900E+003  0.1063069E+03  0.7546771E-02  0.1153354E+00
       21   -1    0    0  501  502  0.00000000000E+00  0.00000000000E+00  0.11150547638E+04  0.11150547638E+04  0.00000000000E+00 0. -1.
        1   -1    0    0  503    0 -0.00000000000E+00 -0.00000000000E+00 -0.49183694091E+02  0.49183694091E+02  0.00000000000E+00 0. -1.
       23    1    1    2    0    0  0.10495724262E+02 -0.54990721011E+02  0.29338633185E+02  0.11095109899E+03  0.91188000000E+02 0. -1.
       21    1    1    2  503  502 -0.22111532476E+02  0.31360597899E+02  0.10229321787E+04  0.10236516249E+04  0.00000000000E+00 0. -1.
        1    1    1    2  501    0  0.11615808214E+02  0.23630123112E+02  0.13600257901E+02  0.29635734068E+02  0.00000000000E+00 0. -1.
<scales pt_clust_3="100000.00000" pt_clust_4="54.64353" pt_clust_5="26.33079"></scales>
<rwgt>
<wgt id='bias'>   0.1000000E+01</wgt>
</rwgt>
<clustering>
<clus scale="   26.331">  1  5  2 -1</clus>
<clus scale="   54.644">  1  4  2 -1</clus>
<clus scale="   26.331">  1  3  2 -1</clus>
</clustering>
</event>
<event>
 3   1  0.8512900E+003  0.9118800E+02  0.7546771E-02  0.1180022E+00
       -4   -1    0    0    0  501 -0.00000000000E+00  0.00000000000E+00  0.87102318567E+01  0.87102318567E+01  0.00000000000E+00 0.  1.
        4   -1    0    0  501    0  0.00000000000E+00 -0.00000000000E+00 -0.23866331806E+03  0.23866331806E+03  0.00000000000E+00 0. -1.
       23    1    1    2    0    0  0.00000000000E+00 -0.00000000000E+00 -0.22995308620E+03  0.24737354992E+03  0.91188000000E+02 0.  1.
<scales pt_clust_3="100000.00000"></scales>
<rwgt>
<wgt id='bias'>   0.1000000E+01</wgt>
</rwgt>
<clustering>
<clus scale="   91.188">  2  3  1 -1</clus>
</clustering>
</event>
<event>
 3   1  0.8512900E+003  0.9118800E+02  0.7546771E-02  0.1180022E+00
       -3   -1    0    0    0  501 -0.00000000000E+00  0.00000000000E+00  0.11027651711E+03  0.11027651711E+03  0.00000000000E+00 0.  1.
        3   -1    0    0  501    0  0.00000000000E+00 -0.00000000000E+00 -0.18850911240E+02  0.18850911240E+02  0.00000000000E+00 0. -1.
       23    1    1    2    0    0  0.00000000000E+00 -0.00000000000E+00  0.91425605873E+02  0.12912742835E+03  0.91188000000E+02 0.  1.
<scales pt_clust_3="100000.00000"></scales>
<rwgt>
<wgt id='bias'>   0.1000000E+01</wgt>
</rwgt>
<clustering>
<clus scale="   91.188">  2  3  1 -1</clus>
</clustering>
</event>
<event>
 5   3  0.8512900E+003  0.9187184E+02  0.7546771E-02  0.1178693E+00
       21   -1    0    0  503  502  0.00000000000E+00  0.00000000000E+00  0.34737184670E+04  0.34737184670E+04  0.00000000000E+00 0.  1.
       -5   -1    0    0    0  501 -0.00000000000E+00 -0.00000000000E+00 -0.11381021511E+01  0.11381021511E+01  0.00000000000E+00 0.  1.
       23    1    1    2    0    0 -0.52626015473E+01 -0.11336585535E+02  0.20287740907E+04  0.20308608459E+04  0.91188000000E+02 0.  1.
       21    1    1    2  503  501  0.10054837661E+02  0.36057533051E+00  0.42509941610E+03  0.42521846543E+03  0.00000000000E+00 0.  1.
       -5    1    1    2    0  502 -0.47922361137E+01  0.10976010204E+02  0.10187068581E+04  0.10187772578E+04  0.00000000000E+00 0.  1.
<scales pt_clust_3="100000.00000" pt_clust_4="10.06130" pt_clust_5="11.18855"></scales>
<rwgt>
<wgt id='bias'>   0.1000000E+01</wgt>
</rwgt>
<clustering>
<clus scale="   10.061">  1  4  2 -1</clus>
<clus scale="   11.189">  1  5  2 -1</clus>
<clus scale="   10.061">  1  3  2 -1</clus>
</clustering>
</event>
<event>
 3   1  0.8512900E+003  0.9118800E+02  0.7546771E-02  0.1180022E+00
        4   -1    0    0  501    0  0.00000000000E+00  0.00000000000E+00  0.23645512399E+02  0.23645512399E+02  0.00000000000E+00 0.  1.
       -4   -1    0    0    0  501 -0.00000000000E+00 -0.00000000000E+00 -0.87915744896E+02  0.87915744896E+02  0.00000000000E+00 0. -1.
       23    1    1    2    0    0  0.00000000000E+00  0.00000000000E+00 -0.64270232497E+02  0.11156125729E+03  0.91188000000E+02 0.  1.
<scales pt_clust_3="100000.00000"></scales>
<rwgt>
<wgt id='bias'>   0.1000000E+01</wgt>
</rwgt>
<clustering>
<clus scale="   91.188">  1  3  2 -1</clus>
</clustering>
</event>
<event>
 5   3  0.8512900E+003  0.1311313E+03  0.7546771E-02  0.1118792E+00
        1   -1    0    0  503    0 -0.00000000000E+00  0.00000000000E+00  0.17206904446E+05  0.17206904446E+05  0.00000000000E+00 0. -1.
       21   -1    0    0  501  502  0.00000000000E+00 -0.00000000000E+00 -0.31700823000E+00  0.31700823000E+00  0.00000000000E+00 0. -1.
       23    1    1    2    0    0  0.38994719183E+02  0.86390792510E+01  0.10957529770E+05  0.10957981983E+05  0.91188000000E+02 0. -1.
       21    1    1    2  503  502 -0.10056840328E+02  0.33609902414E+01  0.32679857604E+04  0.32680029631E+04  0.00000000000E+00 0. -1.
        1    1    1    2  501    0 -0.28937878855E+02 -0.12000069492E+02  0.29810719065E+04  0.29812365076E+04  0.00000000000E+00 0. -1.
<scales pt_clust_3="100000.00000" pt_clust_4="10.60360" pt_clust_5="100000.00000"></scales>
<rwgt>
<wgt id='bias'>   0.1000000E+01</wgt>
</rwgt>
<clustering>
<clus scale="   10.604">  1  4  2 -1</clus>
<clus scale="   33.072">  3  5 -1 -1</clus>
<clus scale="  131.131">  2  3  1 -1</clus>
</clustering>
</event>
<event>
 4   2  0.8512900E+003  0.9216689E+02  0.7546771E-02  0.1178124E+00
       21   -1    0    0  501  502  0.00000000000E+00  0.00000000000E+00  0.84493866193E+03  0.84493866193E+03  0.00000000000E+00 0.  1.
       -4   -1    0    0    0  501 -0.00000000000E+00 -0.00000000000E+00 -0.13176435945E+02  0.13176435945E+02  0.00000000000E+00 0.  1.
       23    1    1    2    0    0 -0.13289545416E+02  0.16947185044E+01  0.14886979966E+03  0.17509126958E+03  0.91188000000E+02 0.  1.
       -4    1    1    2    0  502  0.13289545416E+02 -0.16947185044E+01  0.68289242633E+03  0.68302382830E+03  0.00000000000E+00 0.  1.
<scales pt_clust_3="100000.00000" pt_clust_4="13.39717"></scales>
<rwgt>
<wgt id='bias'>   0.1000000E+01</wgt>
</rwgt>
<clustering>
<clus scale="   13.397">  1  4  2 -1</clus>
<clus scale="   13.397">  1  3  2 -1</clus>
</clustering>
</event>
<event>
 5   3  0.8512900E+003  0.1185065E+03  0.7546771E-02  0.1135198E+00
       21   -1    0    0  503  502  0.00000000000E+00  0.00000000000E+00  0.15574934731E+03  0.15574934731E+03  0.00000000000E+00 0.  1.
       -1   -1    0    0    0  501 -0.00000000000E+00 -0.00000000000E+00 -0.48437297622E+04  0.48437297622E+04  0.00000000000E+00 0.  1.
       23    1    1    2    0    0 -0.61287171758E+02 -0.16685040448E+02 -0.27561511065E+04  0.27583905962E+04  0.91188000000E+02 0.  0.
       21    1    1    2  503  501 -0.18609554864E+02 -0.13184695099E+02  0.15291174026E+03  0.15460320833E+03  0.00000000000E+00 0.  1.
       -1    1    1    2    0  502  0.79896726622E+02  0.29869735547E+02 -0.20847410486E+04  0.20864853050E+04  0.00000000000E+00 0.  1.
<scales pt_clust_3="100000.00000" pt_clust_4="22.80683" pt_clust_5="75.68706"></scales>
<rwgt>
<wgt id='bias'>   0.1000000E+01</wgt>
</rwgt>
<clustering>
<clus scale="   22.807">  1  4  2 -1</clus>
<clus scale="   75.687">  1  5  2 -1</clus>
<clus scale="   22.807">  1  3  2 -1</clus>
</clustering>
</event>
<event>
 5   3  0.8512900E+003  0.9253964E+02  0.7546771E-02  0.1177408E+00
        3   -1    0    0  502    0  0.00000000000E+00  0.00000000000E+00  0.13414545630E+03  0.13414545630E+03  0.00000000000E+00 0. -1.
       -3   -1    0    0    0  501 -0.00000000000E+00 -0.00000000000E+00 -0.57396214732E+02  0.57396214732E+02  0.00000000000E+00 0.  1.
       23    1    1    2    0    0 -0.15561556970E+02 -0.24844059551E+01  0.10948071243E+03  0.14335135879E+03  0.91188000000E+02 0. -1.
        4    1    1    2  502    0  0.10163674716E+02  0.15841700754E+02 -0.26475181938E+02  0.32483765563E+02  0.00000000000E+00 0.  1.
       -4    1    1    2    0  501  0.53978822549E+01 -0.13357294799E+02 -0.62562889316E+01  0.15706546673E+02  0.00000000000E+00 0. -1.
<scales pt_clust_3="100000.00000" pt_clust_4="35.36887" pt_clust_5="35.36887"></scales>
<rwgt>
<wgt id='bias'>   0.1000000E+01</wgt>
</rwgt>
<clustering>
<clus scale="   27.703">  4  5 -1 -1</clus>
<clus scale="   35.369">  2  4  1 -1</clus>
<clus scale="   92.540">  1  3  2 -1</clus>
</clustering>
</event>
<event>
 4   2  0.8512900E+003  0.9216148E+02  0.7546771E-02  0.1178135E+00
        2   -1    0    0  502    0 -0.00000000000E+00  0.00000000000E+00  0.39858720874E+03  0.39858720874E+03  0.00000000000E+00 0. -1.
       21   -1    0    0  501  502  0.00000000000E+00 -0.00000000000E+00 -0.18651828278E+02  0.18651828278E+02  0.00000000000E+00 0. -1.
       23    1    1    2    0    0 -0.63263351284E+01 -0.11767060716E+02  0.38985423530E+03  0.40059962851E+03  0.91188000000E+02 0. -1.
        2    1    1    2  501    0  0.63263351284E+01  0.11767060716E+02 -0.99188548434E+01  0.16639408507E+02  0.00000000000E+00 0. -1.
<scales pt_clust_3="100000.00000" pt_clust_4="13.35987"></scales>
<rwgt>
<wgt id='bias'>   0.1000000E+01</wgt>
</rwgt>
<clustering>
<clus scale="   13.360">  2  4  1 -1</clus>
<clus scale="   13.360">  2  3  1 -1</clus>
</clustering>
</event>
<event>
 4   2  0.8512900E+003  0.9182712E+02  0.7546771E-02  0.1178780E+00
        5   -1    0    0  502    0  0.00000000000E+00  0.00000000000E+00  0.60604733292E+03  0.60604733292E+03  0.00000000000E+00 0. -1.
       -5   -1    0    0    0  501 -0.00000000000E+00 -0.00000000000E+00 -0.13226491781E+02  0.13226491781E+02  0.00000000000E+00 0.  1.
       23    1    1    2    0    0  0.63044437242E+01 -0.87876653832E+01  0.59954650457E+03  0.60653790612E+03  0.91188000000E+02 0. -1.
       21    1    1    2  502  501 -0.63044437242E+01  0.87876653832E+01 -0.67256634299E+01  0.12735918582E+02  0.00000000000E+00 0.  1.
<scales pt_clust_3="100000.00000" pt_clust_4="10.81522"></scales>
<rwgt>
<wgt id='bias'>   0.1000000E+01</wgt>
</rwgt>
<clustering>
<clus scale="   10.815">  2  4  1 -1</clus>
<clus scale="   91.827">  1  3  2 -1</clus>
</clustering>
</event>
<event>
 5   3  0.8512900E+003  0.9237988E+02  0.7546771E-02  0.1177715E+00
        3   -1    0    0  503    0 -0.00000000000E+00  0.00000000000E+00  0.13220086966E+02  0.13220086966E+02  0.00000000000E+00 0. -1.
       21   -1    0    0  501  502  0.00000000000E+00 -0.00000000000E+00 -0.29498318283E+03  0.29498318283E+03  0.00000000000E+00 0.  1.
       23    1    1    2    0    0  0.66792882105E+01  0.17726925160E+01 -0.20201609940E+03  0.22175101148E+03  0.91188000000E+02 0. -1.
       21    1    1    2  503  502 -0.17401005849E+02  0.16817611561E+01 -0.67860338186E+02  0.70076021747E+02  0.00000000000E+00 0.  1.
        3    1    1    2  501    0  0.10721717638E+02 -0.34544536721E+01 -0.11886658277E+02  0.16376236573E+02  0.00000000000E+00 0. -1.
<scales pt_clust_3="100000.00000" pt_clust_4="14.79160" pt_clust_5="11.26448"></scales>
<rwgt>
<wgt id='bias'>   0.1000000E+01</wgt>
</rwgt>
<clustering>
<clus scale="   11.264">  2  5  1 -1</clus>
<clus scale="   14.792">  2  4  1 -1</clus>
<clus scale="   11.264">  2  3  1 -1</clus>
</clustering>
</event>
<event>
 3   1  0.8512900E+003  0.9118800E+02  0.7546771E-02  0.1180022E+00
       -3   -1    0    0    0  501 -0.00000000000E+00  0.00000000000E+00  0.27731724448E+04  0.27731724448E+04  0.00000000000E+00 0.  1.
        3   -1    0    0  501    0  0.00000000000E+00 -0.00000000000E+00 -0.74961542326E+00  0.74961542326E+00  0.00000000000E+00 0. -1.
       23    1    1    2    0    0  0.00000000000E+00 -0.00000000000E+00  0.27724228294E+04  0.27739220602E+04  0.91188000000E+02 0.  1.
<scales pt_clust_3="100000.00000"></scales>
<rwgt>
<wgt id='bias'>   0.1000000E+01</wgt>
</rwgt>
<clustering>
<clus scale="   91.188">  2  3  1 -1</clus>
</clustering>
</event>
<event>
 4   2  0.8512900E+003  0.9483661E+02  0.7546771E-02  0.1173080E+00
        2   -1    0    0  502    0  0.00000000000E+00  0.00000000000E+00  0.38565702197E+03  0.38565702197E+03  0.00000000000E+00 0. -1.
       -2   -1    0    0    0  501 -0.00000000000E+00 -0.00000000000E+00 -0.15957441807E+02  0.15957441807E+02  0.00000000000E+00 0.  1.
       23    1    1    2    0    0  0.77732730166E+01  0.24865786044E+02  0.36233574035E+03  0.37454128100E+03  0.91188000000E+02 0. -1.
       21    1    1    2  502  501 -0.77732730166E+01 -0.24865786044E+02  0.73638398058E+01  0.27073182777E+02  0.00000000000E+00 0.  1.
<scales pt_clust_3="100000.00000" pt_clust_4="26.05247"></scales>
<rwgt>
<wgt id='bias'>   0.1000000E+01</wgt>
</rwgt>
<clustering>
<clus scale="   26.052">  2  4  1 -1</clus>
<clus scale="   94.837">  1  3  2 -1</clus>
</clustering>
</event>
<event>
 5   3  0.8512900E+003  0.9816061E+02  0.7546771E-02  0.1167055E+00
       -5   -1    0    0    0  501 -0.00000000000E+00  0.00000000000E+00  0.43588890683E+02  0.43588890683E+02  0.00000000000E+00 0.  1.
       21   -1    0    0  503  502  0.00000000000E+00 -0.00000000000E+00 -0.22388832491E+03  0.22388832491E+03  0.00000000000E+00 0.  1.
       23    1    1    2    0    0 -0.26653003243E+02  0.13217302577E+02 -0.28078446057E+02  0.99943634846E+02  0.91188000000E+02 0.  1.
       21    1    1    2  503  501 -0.84420267382E+01  0.19865184731E+02 -0.52413019879E+02  0.56683489947E+02  0.00000000000E+00 0.  1.
       -5    1    1    2    0  502  0.35095029981E+02 -0.33082487308E+02 -0.99807968295E+02  0.11085009080E+03  0.00000000000E+00 0.  1.
<scales pt_clust_3="100000.00000" pt_clust_4="21.58456" pt_clust_5="36.33531"></scales>
<rwgt>
<wgt id='bias'>   0.1000000E+01</wgt>
</rwgt>
<clustering>
<clus scale="   21.585">  2  4  1 -1</clus>
<clus scale="   36.335">  2  5  1 -1</clus>
<clus scale="   21.585">  2  3  1 -1</clus>
</clustering>
</event>
<event>
 4   2  0.8512900E+003  0.9305493E+02  0.7546771E-02  0.1176425E+00
       -4   -1    0    0    0  501 -0.00000000000E+00  0.00000000000E+00  0.38288394990E+04  0.38288394990E+04  0.00000000000E+00 0. -1.
        4   -1    0    0  502    0  0.00000000000E+00 -0.00000000000E+00 -0.15677262078E+01  0.15677262078E+01  0.00000000000E+00 0.  1.
       23    1    1    2    0    0 -0.90513762186E+00 -0.18524302635E+02  0.14114043293E+04  0.14144685932E+04  0.91188000000E+02 0.  1.
       21    1    1    2  502  501  0.90513762186E+00  0.18524302635E+02  0.24158674435E+04  0.24159386320E+04  0.00000000000E+00 0. -1.
<scales pt_clust_3="100000.00000" pt_clust_4="18.54640"></scales>
<rwgt>
<wgt id='bias'>   0.1000000E+01</wgt>
</rwgt>
<clustering>
<clus scale="   18.546">  1  4  2 -1</clus>
<clus scale="   93.055">  2  3  1 -1</clus>
</clustering>
</event>
<event>
 3   1  0.8512900E+003  0.9118800E+02  0.7546771E-02  0.1180022E+00
       -3   -1    0    0    0  501 -0.00000000000E+00  0.00000000000E+00  0.92596103007E+03  0.92596103007E+03  0.00000000000E+00 0.  1.
        3   -1    0    0  501    0  0.00000000000E+00 -0.00000000000E+00 -0.22450327481E+01  0.22450327481E+01  0.00000000000E+00 0. -1.
       23    1    1    2    0    0  0.00000000000E+00 -0.00000000000E+00  0.92371599732E+03  0.92820606282E+03  0.91188000000E+02 0.  1.
<scales pt_clust_3="100000.00000"></scales>
<rwgt>
<wgt id='bias'>   0.1000000E+01</wgt>
</rwgt>
<clustering>
<clus scale="   91.188">  2  3  1 -1</clus>
</clustering>
</event>
<event>
 5   3  0.8512900E+003  0.9372363E+02  0.7546771E-02  0.1175160E+00
       -2   -1    0    0    0  501 -0.00000000000E+00  0.00000000000E+00  0.53856464169E+02  0.53856464169E+02  0.00000000000E+00 0. -1.
       21   -1    0    0  503  502  0.00000000000E+00 -0.00000000000E+00 -0.37708236782E+03  0.37708236782E+03  0.00000000000E+00 0. -1.
       23    1    1    2    0    0 -0.15868826982E+02 -0.15771274686E+02  0.10925232979E+02  0.94526000839E+02  0.91188000000E+02 0. -1.
       21    1    1    2  503  501  0.17265423875E+02  0.56352200657E+01 -0.30459088451E+03  0.30513186903E+03  0.00000000000E+00 0. -1.
       -2    1    1    2    0  502 -0.13965968923E+01  0.10136054620E+02 -0.29560252115E+02  0.31280962122E+02  0.00000000000E+00 0. -1.
<scales pt_clust_3="100000.00000" pt_clust_4="21.65336" pt_clust_5="10.23182"></scales>
<rwgt>
<wgt id='bias'>   0.1000000E+01</wgt>
</rwgt>
<clustering>
<clus scale="   10.232">  2  5  1 -1</clus>
<clus scale="   21.653">  2  4  1 -1</clus>
<clus scale="   10.232">  2  3  1 -1</clus>
</clustering>
</event>
<event>
 4   2  0.8512900E+003  0.9594000E+02  0.7546771E-02  0.1171050E+00
        1   -1    0    0  502    0  0.00000000000E+00  0.00000000000E+00  0.54652921979E+02  0.54652921979E+02  0.00000000000E+00 0. -1.
       -1   -1    0    0    0  501 -0.00000000000E+00 -0.00000000000E+00 -0.18834455470E+03  0.18834455470E+03  0.00000000000E+00 0.  1.
       23    1    1    2    0    0 -0.18990836532E+02  0.22990887213E+02  0.98007567573E+01  0.96439301864E+02  0.91188000000E+02 0. -1.
       21    1    1    2  502  501  0.18990836532E+02 -0.22990887213E+02 -0.14349238948E+03  0.14655817482E+03  0.00000000000E+00 0.  1.
<scales pt_clust_3="100000.00000" pt_clust_4="29.82001"></scales>
<rwgt>
<wgt id='bias'>   0.1000000E+01</wgt>
</rwgt>
<clustering>
<clus scale="   29.820">  2  4  1 -1</clus>
<clus scale="   95.940">  1  3  2 -1</clus>
</clustering>
</event>
<event>
 4   2  0.8512900E+003  0.1027061E+03  0.7546771E-02  0.1159235E+00
       21   -1    0    0  501  502  0.00000000000E+00  0.00000000000E+00  0.28179227944E+02  0.28179227944E+02  0.00000000000E+00 0. -1.
       -2   -1    0    0    0  501 -0.00000000000E+00 -0.00000000000E+00 -0.30120105485E+03  0.30120105485E+03  0.00000000000E+00 0. -1.
       23    1    1    2    0    0 -0.44983392102E+02  0.14483723800E+02 -0.26119914548E+03  0.28066622305E+03  0.91188000000E+02 0. -1.
       -2    1    1    2    0  502  0.44983392102E+02 -0.14483723800E+02 -0.11822681424E+02  0.48714059738E+02  0.00000000000E+00 0. -1.
<scales pt_clust_3="100000.00000" pt_clust_4="47.25763"></scales>
<rwgt>
<wgt id='bias'>   0.1000000E+01</wgt>
</rwgt>
<clustering>
<clus scale="   47.258">  1  4  2 -1</clus>
<clus scale="   47.258">  1  3  2 -1</clus>
</clustering>
</event>
<event>
 3   1  0.8512900E+003  0.9118800E+02  0.7546771E-02  0.1180022E+00
        4   -1    0    0  501    0  0.00000000000E+00  0.00000000000E+00  0.13903782955E+03  0.13903782955E+03  0.00000000000E+00 0.  1.
       -4   -1    0    0    0  501 -0.00000000000E+00 -0.00000000000E+00 -0.14951418924E+02  0.14951418924E+02  0.00000000000E+00 0. -1.
       23    1    1    2    0    0  0.00000000000E+00  0.00000000000E+00  0.12408641063E+03  0.15398924848E+03  0.91188000000E+02 0.  1.
<scales pt_clust_3="100000.00000"></scales>
<rwgt>
<wgt id='bias'>   0.1000000E+01</wgt>
</rwgt>
<clustering>
<clus scale="   91.188">  1  3  2 -1</clus>
</clustering>
</event>
<event>
 4   2  0.8512900E+003  0.9229142E+02  0.7546771E-02  0.1177885E+00
       -1   -1    0    0    0  501 -0.00000000000E+00  0.00000000000E+00  0.10097603999E+03  0.10097603999E+03  0.00000000000E+00 0.  1.
        1   -1    0    0  502    0  0.00000000000E+00 -0.00000000000E+00 -0.29526225634E+02  0.29526225634E+02  0.00000000000E+00 0. -1.
       23    1    1    2    0    0 -0.12264705776E+02 -0.72132471201E+01  0.70690486470E+02  0.11625338775E+03  0.91188000000E+02 0.  0.
       21    1    1    2  502  501  0.12264705776E+02  0.72132471201E+01  0.75932788401E+00  0.14248877872E+02  0.00000000000E+00 0.  1.
<scales pt_clust_3="100000.00000" pt_clust_4="14.22863"></scales>
<rwgt>
<wgt id='bias'>   0.1000000E+01</wgt>
</rwgt>
<clustering>
<clus scale="   14.229">  2  4  1 -1</clus>
<clus scale="   14.229">  2  3  1 -1</clus>
</clustering>
</event>
<event>
 5   3  0.8512900E+003  0.3495069E+02  0.7546771E-02  0.1167951E+00
       21   -1    0    0  501  502  0.00000000000E+00  0.00000000000E+00  0.25958460620E+03  0.25958460620E+03  0.00000000000E+00 0.  1.
       21   -1    0    0  502  503 -0.00000000000E+00 -0.00000000000E+00 -0.10680882284E+03  0.10680882284E+03  0.00000000000E+00 0. -1.
       23    1    1    2    0    0  0.12632204635E+02  0.76609438562E+01 -0.19010213961E+02  0.94312789342E+02  0.91188000000E+02 0.  1.
        2    1    1    2  501    0 -0.15479042360E+02 -0.31974063005E+02  0.21741603451E+03  0.22029905474E+03  0.00000000000E+00 0.  1.
       -2    1    1    2    0  503  0.28468377249E+01  0.24313119149E+02 -0.45630037182E+02  0.51781584960E+02  0.00000000000E+00 0. -1.
<scales pt_clust_3="100000.00000" pt_clust_4="34.95069" pt_clust_5="24.47922"></scales>
<rwgt>
<wgt id='bias'>   0.1000000E+01</wgt>
</rwgt>
<clustering>
<clus scale="   24.479">  2  5  1 -1</clus>
<clus scale="   34.951">  1  4  2 -1</clus>
<clus scale="   34.951">  1  3  2 -1</clus>
</clustering>
</event>
<event>
 5   3  0.8512900E+003  0.1096585E+03  0.7546771E-02  0.1148108E+00
       21   -1    0    0  501  502  0.00000000000E+00  0.00000000000E+00  0.61627617948E+03  0.61627617948E+03  0.00000000000E+00 0. -1.
       -5   -1    0    0    0  501 -0.00000000000E+00 -0.00000000000E+00 -0.15120668396E+04  0.15120668396E+04  0.00000000000E+00 0.  1.
       23    1    1    2    0    0 -0.31810919850E+02  0.13812554293E+02 -0.12778501461E+04  0.12815689480E+04  0.91188000000E+02 0.  1.
       21    1    1    2  503  502  0.20862832236E+02 -0.13785294755E+02  0.61403319624E+03  0.61454215332E+03  0.00000000000E+00 0. -1.
       -5    1    1    2    0  503  0.10948087614E+02 -0.27259538203E-01 -0.23197371019E+03  0.23223191767E+03  0.00000000000E+00 0.  1.
<scales pt_clust_3="100000.00000" pt_clust_4="25.00584" pt_clust_5="100000.00000"></scales>
<rwgt>
<wgt id='bias'>   0.1000000E+01</wgt>
</rwgt>
<clustering>
<clus scale="   10.948">  3  5 -1 -1</clus>
<clus scale="   25.006">  1  4  2 -1</clus>
<clus scale="   25.006">  1  3  2 -1</clus>
</clustering>
</event>
<event>
 4   2  0.8512900E+003  0.9255104E+02  0.7546771E-02  0.1177387E+00
       -3   -1    0    0    0  501 -0.00000000000E+00  0.00000000000E+00  0.18573162402E+02  0.18573162402E+02  0.00000000000E+00 0.  1.
        3   -1    0    0  502    0  0.00000000000E+00 -0.00000000000E+00 -0.19310353187E+03  0.19310353187E+03  0.00000000000E+00 0. -1.
       23    1    1    2    0    0  0.15727895367E+02  0.17540264916E+01 -0.17244904239E+03  0.19571501441E+03  0.91188000000E+02 0. -1.
       21    1    1    2  502  501 -0.15727895367E+02 -0.17540264916E+01 -0.20813270820E+01  0.15961679862E+02  0.00000000000E+00 0.  1.
<scales pt_clust_3="100000.00000" pt_clust_4="15.82540"></scales>
<rwgt>
<wgt id='bias'>   0.1000000E+01</wgt>
</rwgt>
<clustering>
<clus scale="   15.825">  1  4  2 -1</clus>
<clus scale="   92.551">  2  3  1 -1</clus>
</clustering>
</event>
<event>
 5   3  0.8512900E+003  0.9174197E+02  0.7546771E-02  0.1178945E+00
        4   -1    0    0  503    0 -0.00000000000E+00  0.00000000000E+00  0.19749633808E+01  0.19749633808E+01  0.00000000000E+00 0.  1.
       21   -1    0    0  501  502  0.00000000000E+00 -0.00000000000E+00 -0.40128566981E+04  0.40128566981E+04  0.00000000000E+00 0.  1.
       23    1    1    2    0    0  0.85749155829E+01 -0.56204720836E+01 -0.11022932244E+04  0.11061061083E+04  0.91188000000E+02 0.  1.
       21    1    1    2  503  502  0.21845700712E+01  0.13195012100E+02 -0.96744119336E+03  0.96753363936E+03  0.00000000000E+00 0.  1.
        4    1    1    2  501    0 -0.10759485654E+02 -0.75745400168E+01 -0.19411473169E+04  0.19411919138E+04  0.00000000000E+00 0.  1.
<scales pt_clust_3="100000.00000" pt_clust_4="10.06663" pt_clust_5="13.15827"></scales>
<rwgt>
<wgt id='bias'>   0.1000000E+01</wgt>
</rwgt>
<clustering>
<clus scale="   13.158">  2  5  1 -1</clus>
<clus scale="   10.067">  2  4  1 -1</clus>
<clus scale="   13.158">  2  3  1 -1</clus>
</clustering>
</event>
<event>
 5   3  0.8512900E+003  0.1081240E+03  0.7546771E-02  0.1150484E+00
        2   -1    0    0  502    0 -0.00000000000E+00  0.00000000000E+00  0.99249455875E+02  0.99249455875E+02  0.00000000000E+00 0. -1.
       21   -1    0    0  503  502  0.00000000000E+00 -0.00000000000E+00 -0.75353427230E+02  0.75353427230E+02  0.00000000000E+00 0.  1.
       23    1    1    2    0    0 -0.57236986888E+02  0.99742171457E+01  0.35456202811E+02  0.11378906510E+03  0.91188000000E+02 0.  1.
       21    1    1    2  503  501  0.36067745605E+02 -0.12885208678E+02 -0.84341015074E+01  0.39217916109E+02  0.00000000000E+00 0.  1.
        2    1    1    2  501    0  0.21169241283E+02  0.29109915326E+01 -0.31260726579E+01  0.21595901891E+02  0.00000000000E+00 0. -1.
<scales pt_clust_3="100000.00000" pt_clust_4="10.27212" pt_clust_5="59.70496"></scales>
<rwgt>
<wgt id='bias'>   0.1000000E+01</wgt>
</rwgt>
<clustering>
<clus scale="   10.272">  4  5 -1 -1</clus>
<clus scale="   59.705">  2  4  1 -1</clus>
<clus scale="   59.705">  2  3  1 -1</clus>
</clustering>
</event>
<event>
 4   2  0.8512900E+003  0.2146564E+03  0.7546771E-02  0.1045379E+00
       21   -1    0    0  501  502  0.00000000000E+00  0.00000000000E+00  0.28110383924E+02  0.28110383924E+02  0.00000000000E+00 0.  1.
       -1   -1    0    0    0  501 -0.00000000000E+00 -0.00000000000E+00 -0.40978963423E+03  0.40978963423E+03  0.00000000000E+00 0.  1.
       23    1    1    2    0    0 -0.77850227991E+02 -0.73204022883E+01 -0.30745404394E+03  0.33008708967E+03  0.91188000000E+02 0.  1.
       -1    1    1    2    0  502  0.77850227991E+02  0.73204022883E+01 -0.74225206364E+02  0.10781292848E+03  0.00000000000E+00 0.  1.
<scales pt_clust_3="100000.00000" pt_clust_4="100000.00000"></scales>
<rwgt>
<wgt id='bias'>   0.1000000E+01</wgt>
</rwgt>
<clustering>
<clus scale="   78.194">  3  4 -1 -1</clus>
<clus scale="  214.656">  1  3  2 -1</clus>
</clustering>
</event>
<event>
 3   1  0.8512900E+003  0.9118800E+02  0.7546771E-02  0.1180022E+00
       -3   -1    0    0    0  501 -0.00000000000E+00  0.00000000000E+00  0.58393000767E+00  0.58393000767E+00  0.00000000000E+00 0.  1.
        3   -1    0    0  501    0  0.00000000000E+00 -0.00000000000E+00 -0.35600376907E+04  0.35600376907E+04  0.00000000000E+00 0. -1.
       23    1    1    2    0    0  0.00000000000E+00 -0.00000000000E+00 -0.35594537607E+04  0.35606216207E+04  0.91188000000E+02 0.  1.
<scales pt_clust_3="100000.00000"></scales>
<rwgt>
<wgt id='bias'>   0.1000000E+01</wgt>
</rwgt>
<clustering>
<clus scale="   91.188">  2  3  1 -1</clus>
</clustering>
</event>
<event>
 4   2  0.8512900E+003  0.9176849E+02  0.7546771E-02  0.1178893E+00
        3   -1    0    0  502    0  0.00000000000E+00  0.00000000000E+00  0.37081336145E+02  0.37081336145E+02  0.00000000000E+00 0.  1.
       -3   -1    0    0    0  501 -0.00000000000E+00 -0.00000000000E+00 -0.80272660473E+02  0.80272660473E+02  0.00000000000E+00 0. -1.
       23    1    1    2    0    0  0.88298920776E+01  0.53139725812E+01 -0.50475393440E+02  0.10473405361E+03  0.91188000000E+02 0. -1.
       21    1    1    2  502  501 -0.88298920776E+01 -0.53139725812E+01  0.72840691115E+01  0.12619943008E+02  0.00000000000E+00 0.  1.
<scales pt_clust_3="100000.00000" pt_clust_4="10.30560"></scales>
<rwgt>
<wgt id='bias'>   0.1000000E+01</wgt>
</rwgt>
<clustering>
<clus scale="   10.306">  1  4  2 -1</clus>
<clus scale="   10.306">  1  3  2 -1</clus>
</clustering>
</event>
<event>
 5   3  0.8512900E+003  0.1151747E+03  0.7546771E-02  0.1139910E+00
       -1   -1    0    0    0  501 -0.00000000000E+00  0.00000000000E+00  0.52841211962E+02  0.52841211962E+02  0.00000000000E+00 0.  1.
       21   -1    0    0  503  502  0.00000000000E+00 -0.00000000000E+00 -0.16831657385E+04  0.16831657385E+04  0.00000000000E+00 0.  1.
       23    1    1    2    0    0 -0.41696565340E+00  0.18809669213E+01  0.11551898794E+02  0.91936987152E+02  0.91188000000E+02 0.  1.
       21    1    1    2  503  501 -0.62513070516E+01 -0.91558312749E+01 -0.16203644760E+04  0.16204024017E+04  0.00000000000E+00 0.  1.
       -1    1    1    2    0  502  0.66682727050E+01  0.72748643536E+01 -0.21511949301E+02  0.23667561660E+02  0.00000000000E+00 0.  1.
<scales pt_clust_3="100000.00000" pt_clust_4="11.08639" pt_clust_5="100000.00000"></scales>
<rwgt>
<wgt id='bias'>   0.1000000E+01</wgt>
</rwgt>
<clustering>
<clus scale="    9.869">  3  5 -1 -1</clus>
<clus scale="   11.086">  2  4  1 -1</clus>
<clus scale="   11.086">  2  3  1 -1</clus>
</clustering>
</event>
<event>
 3   1  0.8512900E+003  0.9118800E+02  0.7546771E-02  0.1180022E+00
       -1   -1    0    0    0  501 -0.00000000000E+00  0.00000000000E+00  0.73338962695E+01  0.73338962695E+01  0.00000000000E+00 0.  1.
        1   -1    0    0  501    0  0.00000000000E+00 -0.00000000000E+00 -0.28345271867E+03  0.28345271867E+03  0.00000000000E+00 0. -1.
       23    1    1    2    0    0  0.00000000000E+00 -0.00000000000E+00 -0.27611882240E+03  0.29078661494E+03  0.91188000000E+02 0.  1.
<scales pt_clust_3="100000.00000"></scales>
<rwgt>
<wgt id='bias'>   0.1000000E+01</wgt>
</rwgt>
<clustering>
<clus scale="   91.188">  2  3  1 -1</clus>
</clustering>
</event>
<event>
 5   3  0.8512900E+003  0.1352726E+03  0.7546771E-02  0.1113853E+00
       -3   -1    0    0    0  501 -0.00000000000E+00  0.00000000000E+00  0.59643485034E+04  0.59643485034E+04  0.00000000000E+00 0.  1.
       21   -1    0    0  501  502  0.00000000000E+00 -0.00000000000E+00 -0.14167213439E+02  0.14167213439E+02  0.00000000000E+00 0.  1.
       23    1    1    2    0    0  0.14860257785E+02  0.24626269850E+02  0.49500745959E+04  0.49509979839E+04  0.91188000000E+02 0.  1.
       21    1    1    2  503  502 -0.11806893623E+02  0.10381482730E+02 -0.87879574300E+01  0.18011277480E+02  0.00000000000E+00 0.  1.
       -3    1    1    2    0  503 -0.30533641625E+01 -0.35007752580E+02  0.10088946515E+04  0.10095064555E+04  0.00000000000E+00 0.  1.
<scales pt_clust_3="100000.00000" pt_clust_4="15.72189" pt_clust_5="100000.00000"></scales>
<rwgt>
<wgt id='bias'>   0.1000000E+01</wgt>
</rwgt>
<clustering>
<clus scale="   15.722">  2  4  1 -1</clus>
<clus scale="   31.831">  3  5 -1 -1</clus>
<clus scale="   15.722">  2  3  1 -1</clus>
</clustering>
</event>
<event>
 3   1  0.8512900E+003  0.9118800E+02  0.7546771E-02  0.1180022E+00
        1   -1    0    0  501    0  0.00000000000E+00  0.00000000000E+00  0.10878862037E+05  0.10878862037E+05  0.00000000000E+00 0. -1.
       -1   -1    0    0    0  501 -0.00000000000E+00 -0.00000000000E+00 -0.19108734249E+00  0.19108734249E+00  0.00000000000E+00 0.  1.
       23    1    1    2    0    0  0.00000000000E+00  0.00000000000E+00  0.10878670950E+05  0.10879053125E+05  0.91188000000E+02 0. -1.
<scales pt_clust_3="100000.00000"></scales>
<rwgt>
<wgt id='bias'>   0.1000000E+01</wgt>
</rwgt>
<clustering>
<clus scale="   91.188">  1  3  2 -1</clus>
</clustering>
</event>
<event>
 5   3  0.8512900E+003  0.9202009E+02  0.7546771E-02  0.1178407E+00
       21   -1    0    0  503  502  0.00000000000E+00  0.00000000000E+00  0.51481586983E+02  0.51481586983E+02  0.00000000000E+00 0.  1.
       -2   -1    0    0    0  501 -0.00000000000E+00 -0.00000000000E+00 -0.28545924772E+03  0.28545924772E+03  0.00000000000E+00 0.  1.
       23    1    1    2    0    0  0.77522755805E+01 -0.10889643646E+02 -0.27356571030E+03  0.28867305262E+03  0.91188000000E+02 0.  1.
       21    1    1    2  503  501 -0.98834637341E+01 -0.20910985308E+01  0.30884147498E+02  0.32494401289E+02  0.00000000000E+00 0.  1.
       -2    1    1    2    0  502  0.21311881536E+01  0.12980742177E+02  0.87039020641E+01  0.15773380790E+02  0.00000000000E+00 0.  1.
<scales pt_clust_3="100000.00000" pt_clust_4="10.10225" pt_clust_5="12.34687"></scales>
<rwgt>
<wgt id='bias'>   0.1000000E+01</wgt>
</rwgt>
<clustering>
<clus scale="   10.102">  1  4  2 -1</clus>
<clus scale="   12.347">  1  5  2 -1</clus>
<clus scale="   10.102">  1  3  2 -1</clus>
</clustering>
</event>
<event>
 5   3  0.8512900E+003  0.1318895E+03  0.7546771E-02  0.1117873E+00
        4   -1    0    0  502    0 -0.00000000000E+00  0.00000000000E+00  0.47699958164E+04  0.47699958164E+04  0.00000000000E+00 0. -1.
       21   -1    0    0  503  502  0.00000000000E+00 -0.00000000000E+00 -0.91167979131E+00  0.91167979131E+00  0.00000000000E+00 0.  1.
       23    1    1    2    0    0  0.12716596489E+02 -0.12348189764E+02  0.26449406140E+04  0.26465714222E+04  0.91188000000E+02 0.  1.
       21    1    1    2  503  501  0.35549720828E+01  0.45679575321E+01  0.15213249338E+03  0.15224256831E+03  0.00000000000E+00 0.  1.
        4    1    1    2  501    0 -0.16271568572E+02  0.77802322323E+01  0.19720110292E+04  0.19720935057E+04  0.00000000000E+00 0. -1.
<scales pt_clust_3="100000.00000" pt_clust_4="12.71628" pt_clust_5="100000.00000"></scales>
<rwgt>
<wgt id='bias'>   0.1000000E+01</wgt>
</rwgt>
<clustering>
<clus scale="   12.716">  4  5 -1 -1</clus>
<clus scale="   28.602">  3  4 -1 -1</clus>
<clus scale="  131.889">  2  3  1 -1</clus>
</clustering>
</event>
<event>
 3   1  0.8512900E+003  0.9118800E+02  0.7546771E-02  0.1180022E+00
        3   -1    0    0  501    0  0.00000000000E+00  0.00000000000E+00  0.20826039953E+03  0.20826039953E+03  0.00000000000E+00 0. -1.
       -3   -1    0    0    0  501 -0.00000000000E+00 -0.00000000000E+00 -0.99817960626E+01  0.99817960626E+01  0.00000000000E+00 0.  1.
       23    1    1    2    0    0  0.00000000000E+00  0.00000000000E+00  0.19827860346E+03  0.21824219559E+03  0.91188000000E+02 0. -1.
<scales pt_clust_3="100000.00000"></scales>
<rwgt>
<wgt id='bias'>   0.1000000E+01</wgt>
</rwgt>
<clustering>
<clus scale="   91.188">  1  3  2 -1</clus>
</clustering>
</event>
<event>
 3   1  0.8512900E+003  0.9118800E+02  0.7546771E-02  0.1180022E+00
       -3   -1    0    0    0  501 -0.00000000000E+00  0.00000000000E+00  0.11279352861E+01  0.11279352861E+01  0.00000000000E+00 0.  1.
        3   -1    0    0  501    0  0.00000000000E+00 -0.00000000000E+00 -0.18430249161E+04  0.18430249161E+04  0.00000000000E+00 0. -1.
       23    1    1    2    0    0  0.00000000000E+00 -0.00000000000E+00 -0.18418969808E+04  0.18441528513E+04  0.91188000000E+02 0.  1.
<scales pt_clust_3="100000.00000"></scales>
<rwgt>
<wgt id='bias'>   0.1000000E+01</wgt>
</rwgt>
<clustering>
<clus scale="   91.188">  2  3  1 -1</clus>
</clustering>
</event>
<event>
 4   2  0.8512900E+003  0.9279634E+02  0.7546771E-02  0.1176918E+00
       -2   -1    0    0    0  501 -0.00000000000E+00  0.00000000000E+00  0.44828254630E+00  0.44828254630E+00  0.00000000000E+00 0.  1.
        2   -1    0    0  502    0  0.00000000000E+00 -0.00000000000E+00 -0.13596674278E+05  0.13596674278E+05  0.00000000000E+00 0. -1.
       23    1    1    2    0    0 -0.86097289945E+01  0.14892325863E+02 -0.48947022157E+04  0.48955817776E+04  0.91188000000E+02 0.  1.
       21    1    1    2  502  501  0.86097289945E+01 -0.14892325863E+02 -0.87015237799E+04  0.87015407831E+04  0.00000000000E+00 0. -1.
<scales pt_clust_3="100000.00000" pt_clust_4="17.20200"></scales>
<rwgt>
<wgt id='bias'>   0.1000000E+01</wgt>
</rwgt>
<clustering>
<clus scale="   17.202">  2  4  1 -1</clus>
<clus scale="   17.202">  2  3  1 -1</clus>
</clustering>
</event>
<event>
 4   2  0.8512900E+003  0.1128505E+03  0.7546771E-02  0.1143301E+00
        3   -1    0    0  502    0 -0.00000000000E+00  0.00000000000E+00  0.88754398857E+02  0.88754398857E+02  0.00000000000E+00 0. -1.
       21   -1    0    0  501  502  0.00000000000E+00 -0.00000000000E+00 -0.36664852860E+03  0.36664852860E+03  0.00000000000E+00 0. -1.
       23    1    1    2    0    0  0.66970834254E+01  0.66144764873E+02 -0.34376459200E+03  0.36181393962E+03  0.91188000000E+02 0. -1.
        3    1    1    2  501    0 -0.66970834254E+01 -0.66144764873E+02  0.65870462256E+02  0.93588987837E+02  0.00000000000E+00 0. -1.
<scales pt_clust_3="100000.00000" pt_clust_4="66.48297"></scales>
<rwgt>
<wgt id='bias'>   0.1000000E+01</wgt>
</rwgt>
<clustering>
<clus scale="   66.483">  2  4  1 -1</clus>
<clus scale="   66.483">  2  3  1 -1</clus>
</clustering>
</event>
<event>
 3   1  0.8512900E+003  0.9118800E+02  0.7546771E-02  0.1180022E+00
        2   -1    0    0  501    0  0.00000000000E+00  0.00000000000E+00  0.13855796408E+05  0.13855796408E+05  0.00000000000E+00 0. -1.
       -2   -1    0    0    0  501 -0.00000000000E+00 -0.00000000000E+00 -0.15003199923E+00  0.15003199923E+00  0.00000000000E+00 0.  1.
       23    1    1    2    0    0  0.00000000000E+00  0.00000000000E+00  0.13855646376E+05  0.13855946440E+05  0.91188000000E+02 0. -1.
<scales pt_clust_3="100000.00000"></scales>
<rwgt>
<wgt id='bias'>   0.1000000E+01</wgt>
</rwgt>
<clustering>
<clus scale="   91.188">  1  3  2 -1</clus>
</clustering>
</event>
<event>
 3   1  0.8512900E+003  0.9118800E+02  0.7546771E-02  0.1180022E+00
       -1   -1    0    0    0  501 -0.00000000000E+00  0.00000000000E+00  0.47821205604E+02  0.47821205604E+02  0.00000000000E+00 0.  1.
        1   -1    0    0  501    0  0.00000000000E+00 -0.00000000000E+00 -0.43470523374E+02  0.43470523374E+02  0.00000000000E+00 0. -1.
       23    1    1    2    0    0  0.00000000000E+00 -0.00000000000E+00  0.43506822302E+01  0.91291728978E+02  0.91188000000E+02 0.  1.
<scales pt_clust_3="100000.00000"></scales>
<rwgt>
<wgt id='bias'>   0.1000000E+01</wgt>
</rwgt>
<clustering>
<clus scale="   91.188">  2  3  1 -1</clus>
</clustering>
</event>
<event>
 4   2  0.8512900E+003  0.9181792E+02  0.7546771E-02  0.1178798E+00
       21   -1    0    0  501  502  0.00000000000E+00  0.00000000000E+00  0.78105673659E+01  0.78105673659E+01  0.00000000000E+00 0. -1.
        1   -1    0    0  502    0 -0.00000000000E+00 -0.00000000000E+00 -0.75950103994E+03  0.75950103994E+03  0.00000000000E+00 0. -1.
       23    1    1    2    0    0  0.88687500615E+01 -0.60517494051E+01 -0.75095747357E+03  0.75654983765E+03  0.91188000000E+02 0. -1.
        1    1    1    2  501    0 -0.88687500615E+01  0.60517494051E+01 -0.73299900405E+00  0.10761769653E+02  0.00000000000E+00 0. -1.
<scales pt_clust_3="100000.00000" pt_clust_4="10.73678"></scales>
<rwgt>
<wgt id='bias'>   0.1000000E+01</wgt>
</rwgt>
<clustering>
<clus scale="   10.737">  1  4  2 -1</clus>
<clus scale="   10.737">  1  3  2 -1</clus>
</clustering>
</event>
<event>
 3   1  0.8512900E+003  0.9118800E+02  0.7546771E-02  0.1180022E+00
       -3   -1    0    0    0  501 -0.00000000000E+00  0.00000000000E+00  0.11061437292E+02  0.11061437292E+02  0.00000000000E+00 0.  1.
        3   -1    0    0  501    0  0.00000000000E+00 -0.00000000000E+00 -0.18793333824E+03  0.18793333824E+03  0.00000000000E+00 0. -1.
       23    1    1    2    0    0  0.00000000000E+00 -0.00000000000E+00 -0.17687190095E+03  0.19899477553E+03  0.91188000000E+02 0.  1.
<scales pt_clust_3="100000.00000"></scales>
<rwgt>
<wgt id='bias'>   0.1000000E+01</wgt>
</rwgt>
<clustering>
<clus scale="   91.188">  2  3  1 -1</clus>
</clustering>
</event>
<event>
 4   2  0.8512900E+003  0.1031798E+03  0.7546771E-02  0.1158446E+00
       21   -1    0    0  501  502  0.00000000000E+00  0.00000000000E+00  0.32835186078E+02  0.32835186078E+02  0.00000000000E+00 0.  1.
       -1   -1    0    0    0  501 -0.00000000000E+00 -0.00000000000E+00 -0.25510908290E+03  0.25510908290E+03  0.00000000000E+00 0.  1.
       23    1    1    2    0    0  0.46395178471E+02 -0.13353479103E+02 -0.21584601606E+03  0.23923959117E+03  0.91188000000E+02 0.  1.
       -1    1    1    2    0  502 -0.46395178471E+02  0.13353479103E+02 -0.64278807635E+01  0.48704677811E+02  0.00000000000E+00 0.  1.
<scales pt_clust_3="100000.00000" pt_clust_4="48.27865"></scales>
<rwgt>
<wgt id='bias'>   0.1000000E+01</wgt>
</rwgt>
<clustering>
<clus scale="   48.279">  1  4  2 -1</clus>
<clus scale="   48.279">  1  3  2 -1</clus>
</clustering>
</event>
<event>
 5   3  0.8512900E+003  0.9391080E+02  0.7546771E-02  0.1174808E+00
       -2   -1    0    0    0  501 -0.00000000000E+00  0.00000000000E+00  0.24461656801E+02  0.24461656801E+02  0.00000000000E+00 0.  1.
       21   -1    0    0  501  502  0.00000000000E+00 -0.00000000000E+00 -0.51827093400E+03  0.51827093400E+03  0.00000000000E+00 0.  1.
       23    1    1    2    0    0 -0.11861441607E+02  0.18412871379E+02 -0.93089066081E+02  0.13213838654E+03  0.91188000000E+02 0.  1.
       21    1    1    2  503  502  0.13250921071E+02  0.50172496351E+01 -0.37685437087E+03  0.37712063925E+03  0.00000000000E+00 0.  1.
       -2    1    1    2    0  503 -0.13894794638E+01 -0.23430121015E+02 -0.23865840249E+02  0.33473565014E+02  0.00000000000E+00 0.  1.
<scales pt_clust_3="100000.00000" pt_clust_4="14.16897" pt_clust_5="22.44964"></scales>
<rwgt>
<wgt id='bias'>   0.1000000E+01</wgt>
</rwgt>
<clustering>
<clus scale="   14.169">  2  4  1 -1</clus>
<clus scale="   22.450">  2  5  1 -1</clus>
<clus scale="   14.169">  2  3  1 -1</clus>
</clustering>
</event>
<event>
 3   1  0.8512900E+003  0.9118800E+02  0.7546771E-02  0.1180022E+00
        2   -1    0    0  501    0  0.00000000000E+00  0.00000000000E+00  0.85506015002E+04  0.85506015002E+04  0.00000000000E+00 0.  1.
       -2   -1    0    0    0  501 -0.00000000000E+00 -0.00000000000E+00 -0.24311890058E+00  0.24311890058E+00  0.00000000000E+00 0. -1.
       23    1    1    2    0    0  0.00000000000E+00  0.00000000000E+00  0.85503583813E+04  0.85508446191E+04  0.91188000000E+02 0.  1.
<scales pt_clust_3="100000.00000"></scales>
<rwgt>
<wgt id='bias'>   0.1000000E+01</wgt>
</rwgt>
<clustering>
<clus scale="   91.188">  1  3  2 -1</clus>
</clustering>
</event>
<event>
 4   2  0.8512900E+003  0.9496788E+02  0.7546771E-02  0.1172837E+00
        3   -1    0    0  502    0 -0.00000000000E+00  0.00000000000E+00  0.41358431463E+03  0.41358431463E+03  0.00000000000E+00 0. -1.
       21   -1    0    0  501  502  0.00000000000E+00 -0.00000000000E+00 -0.17437593803E+02  0.17437593803E+02  0.00000000000E+00 0.  1.
       23    1    1    2    0    0 -0.11260685207E+02 -0.24017555308E+02  0.11733720919E+03  0.15095336366E+03  0.91188000000E+02 0.  1.
        3    1    1    2  501    0  0.11260685207E+02  0.24017555308E+02  0.27880951163E+03  0.28006854477E+03  0.00000000000E+00 0. -1.
<scales pt_clust_3="100000.00000" pt_clust_4="26.52634"></scales>
<rwgt>
<wgt id='bias'>   0.1000000E+01</wgt>
</rwgt>
<clustering>
<clus scale="   26.526">  2  4  1 -1</clus>
<clus scale="   26.526">  2  3  1 -1</clus>
</clustering>
</event>
<event>
 3   1  0.8512900E+003  0.9118800E+02  0.7546771E-02  0.1180022E+00
        3   -1    0    0  501    0  0.00000000000E+00  0.00000000000E+00  0.52624338339E+00  0.52624338339E+00  0.00000000000E+00 0. -1.
       -3   -1    0    0    0  501 -0.00000000000E+00 -0.00000000000E+00 -0.39502878357E+04  0.39502878357E+04  0.00000000000E+00 0.  1.
       23    1    1    2    0    0  0.00000000000E+00  0.00000000000E+00 -0.39497615923E+04  0.39508140790E+04  0.91188000000E+02 0. -1.
<scales pt_clust_3="100000.00000"></scales>
<rwgt>
<wgt id='bias'>   0.1000000E+01</wgt>
</rwgt>
<clustering>
<clus scale="   91.188">  1  3  2 -1</clus>
</clustering>
</event>
<event>
 5   3  0.8512900E+003  0.1747676E+03  0.7546771E-02  0.1074773E+00
       21   -1    0    0  501  502  0.00000000000E+00  0.00000000000E+00  0.57756131002E+03  0.57756131002E+03  0.00000000000E+00 0.  1.
       -1   -1    0    0    0  501 -0.00000000000E+00 -0.00000000000E+00 -0.40842000497E+02  0.40842000497E+02  0.00000000000E+00 0.  1.
       23    1    1    2    0    0  0.30208863771E+02 -0.17014788977E+02  0.17554971289E+03  0.20083583230E+03  0.91188000000E+02 0.  1.
       21    1    1    2  503  502 -0.25474995798E+02  0.81922894740E+01  0.38800418746E+03  0.38892587791E+03  0.00000000000E+00 0.  1.
       -1    1    1    2    0  503 -0.47338679729E+01  0.88224995025E+01 -0.26834590830E+02  0.28641600313E+02  0.00000000000E+00 0.  1.
<scales pt_clust_3="100000.00000" pt_clust_4="26.75984" pt_clust_5="100000.00000"></scales>
<rwgt>
<wgt id='bias'>   0.1000000E+01</wgt>
</rwgt>
<clustering>
<clus scale="   10.012">  3  5 -1 -1</clus>
<clus scale="   26.760">  1  4  2 -1</clus>
<clus scale="   26.760">  1  3  2 -1</clus>
</clustering>
</event>
<event>
 4   2  0.8512900E+003  0.9425864E+02  0.7546771E-02  0.1174156E+00
       -3   -1    0    0    0  501 -0.00000000000E+00  0.00000000000E+00  0.82618321238E+01  0.82618321238E+01  0.00000000000E+00 0.  1.
       21   -1    0    0  501  502  0.00000000000E+00 -0.00000000000E+00 -0.42333652418E+03  0.42333652418E+03  0.00000000000E+00 0. -1.
       23    1    1    2    0    0 -0.22189475464E+02 -0.87787707877E+01 -0.32191969647E+03  0.33543551088E+03  0.91188000000E+02 0.  1.
       -3    1    1    2    0  502  0.22189475464E+02  0.87787707877E+01 -0.93154995579E+02  0.96162845420E+02  0.00000000000E+00 0.  1.
<scales pt_clust_3="100000.00000" pt_clust_4="23.86293"></scales>
<rwgt>
<wgt id='bias'>   0.1000000E+01</wgt>
</rwgt>
<clustering>
<clus scale="   23.863">  2  4  1 -1</clus>
<clus scale="   23.863">  2  3  1 -1</clus>
</clustering>
</event>
<event>
 4   2  0.8512900E+003  0.9178621E+02  0.7546771E-02  0.1178859E+00
       -3   -1    0    0    0  501 -0.00000000000E+00  0.00000000000E+00  0.10695235409E+02  0.10695235409E+02  0.00000000000E+00 0.  1.
       21   -1    0    0  501  502  0.00000000000E+00 -0.00000000000E+00 -0.30689167858E+03  0.30689167858E+03  0.00000000000E+00 0. -1.
       23    1    1    2    0    0 -0.75009375227E+01 -0.72933543630E+01 -0.19140795905E+03  0.21227744867E+03  0.91188000000E+02 0.  0.
       -3    1    1    2    0  502  0.75009375227E+01  0.72933543630E+01 -0.10478848412E+03  0.10530946532E+03  0.00000000000E+00 0.  1.
<scales pt_clust_3="100000.00000" pt_clust_4="10.46217"></scales>
<rwgt>
<wgt id='bias'>   0.1000000E+01</wgt>
</rwgt>
<clustering>
<clus scale="   10.462">  2  4  1 -1</clus>
<clus scale="   10.462">  2  3  1 -1</clus>
</clustering>
</event>
<event>
 4   2  0.8512900E+003  0.9179989E+02  0.7546771E-02  0.1178833E+00
       21   -1    0    0  501  502  0.00000000000E+00  0.00000000000E+00  0.20611825479E+03  0.20611825479E+03  0.00000000000E+00 0.  1.
       -1   -1    0    0    0  501 -0.00000000000E+00 -0.00000000000E+00 -0.29569548641E+02  0.29569548641E+02  0.00000000000E+00 0.  1.
       23    1    1    2    0    0 -0.90876521547E+01 -0.54206200670E+01  0.42393470037E+02  0.10111590473E+03  0.91188000000E+02 0.  1.
       -1    1    1    2    0  502  0.90876521547E+01  0.54206200670E+01  0.13415523611E+03  0.13457189870E+03  0.00000000000E+00 0.  1.
<scales pt_clust_3="100000.00000" pt_clust_4="10.58152"></scales>
<rwgt>
<wgt id='bias'>   0.1000000E+01</wgt>
</rwgt>
<clustering>
<clus scale="   10.582">  1  4  2 -1</clus>
<clus scale="   10.582">  1  3  2 -1</clus>
</clustering>
</event>
<event>
 5   3  0.8512900E+003  0.2241698E+03  0.7546771E-02  0.1039382E+00
        4   -1    0    0  503    0 -0.00000000000E+00  0.00000000000E+00  0.14011870910E+04  0.14011870910E+04  0.00000000000E+00 0. -1.
       21   -1    0    0  501  502  0.00000000000E+00 -0.00000000000E+00 -0.66550597863E+02  0.66550597863E+02  0.00000000000E+00 0. -1.
       23    1    1    2    0    0  0.53586870383E+02  0.54258756729E+02  0.11367479456E+04  0.11429465029E+04  0.91188000000E+02 0. -1.
       21    1    1    2  503  502  0.13728035904E+02 -0.14608026119E+02 -0.55828473031E+02  0.59318393419E+02  0.00000000000E+00 0. -1.
        4    1    1    2  501    0 -0.67314906287E+02 -0.39650730609E+02  0.25371702057E+03  0.26547279253E+03  0.00000000000E+00 0. -1.
<scales pt_clust_3="100000.00000" pt_clust_4="20.04628" pt_clust_5="100000.00000"></scales>
<rwgt>
<wgt id='bias'>   0.1000000E+01</wgt>
</rwgt>
<clustering>
<clus scale="   20.046">  2  4  1 -1</clus>
<clus scale="   76.316">  3  5 -1 -1</clus>
<clus scale="   20.046">  2  3  1 -1</clus>
</clustering>
</event>
<event>
 4   2  0.8512900E+003  0.1506582E+03  0.7546771E-02  0.1097078E+00
       -3   -1    0    0    0  501 -0.00000000000E+00  0.00000000000E+00  0.19937652160E+04  0.19937652160E+04  0.00000000000E+00 0.  1.
        3   -1    0    0  502    0  0.00000000000E+00 -0.00000000000E+00 -0.11993286237E+02  0.11993286237E+02  0.00000000000E+00 0. -1.
       23    1    1    2    0    0  0.95889556250E+01 -0.11954374301E+03  0.59377491406E+03  0.61259003785E+03  0.91188000000E+02 0.  1.
       21    1    1    2  502  501 -0.95889556250E+01  0.11954374301E+03  0.13879970157E+04  0.13931684644E+04  0.00000000000E+00 0. -1.
<scales pt_clust_3="100000.00000" pt_clust_4="119.92771"></scales>
<rwgt>
<wgt id='bias'>   0.1000000E+01</wgt>
</rwgt>
<clustering>
<clus scale="  119.928">  1  4  2 -1</clus>
<clus scale="  150.658">  2  3  1 -1</clus>
</clustering>
</event>
<event>
 3   1  0.8512900E+003  0.9118800E+02  0.7546771E-02  0.1180022E+00
       -1   -1    0    0    0  501 -0.00000000000E+00  0.00000000000E+00  0.19538805986E+01  0.19538805986E+01  0.00000000000E+00 0.  1.
        1   -1    0    0  501    0  0.00000000000E+00 -0.00000000000E+00 -0.10639405691E+04  0.10639405691E+04  0.00000000000E+00 0. -1.
       23    1    1    2    0    0  0.00000000000E+00 -0.00000000000E+00 -0.10619866885E+04  0.10658944497E+04  0.91188000000E+02 0.  1.
<scales pt_clust_3="100000.00000"></scales>
<rwgt>
<wgt id='bias'>   0.1000000E+01</wgt>
</rwgt>
<clustering>
<clus scale="   91.188">  2  3  1 -1</clus>
</clustering>
</event>
<event>
 3   1  0.8512900E+003  0.9118800E+02  0.7546771E-02  0.1180022E+00
        1   -1    0    0  501    0  0.00000000000E+00  0.00000000000E+00  0.39813850122E+02  0.39813850122E+02  0.00000000000E+00 0. -1.
       -1   -1    0    0    0  501 -0.00000000000E+00 -0.00000000000E+00 -0.52213308425E+02  0.52213308425E+02  0.00000000000E+00 0.  1.
       23    1    1    2    0    0  0.00000000000E+00  0.00000000000E+00 -0.12399458302E+02  0.92027158547E+02  0.91188000000E+02 0. -1.
<scales pt_clust_3="100000.00000"></scales>
<rwgt>
<wgt id='bias'>   0.1000000E+01</wgt>
</rwgt>
<clustering>
<clus scale="   91.188">  1  3  2 -1</clus>
</clustering>
</event>
<event>
 4   2  0.8512900E+003  0.9317055E+02  0.7546771E-02  0.1176206E+00
        1   -1    0    0  502    0 -0.00000000000E+00  0.00000000000E+00  0.52837312533E+03  0.52837312533E+03  0.00000000000E+00 0. -1.
       21   -1    0    0  501  502  0.00000000000E+00 -0.00000000000E+00 -0.21578858454E+02  0.21578858454E+02  0.00000000000E+00 0. -1.
       23    1    1    2    0    0  0.90764698728E+01 -0.16826094290E+02  0.51898238961E+03  0.52727931102E+03  0.91188000000E+02 0. -1.
        1    1    1    2  501    0 -0.90764698728E+01  0.16826094290E+02 -0.12188122739E+02  0.22672672765E+02  0.00000000000E+00 0. -1.
<scales pt_clust_3="100000.00000" pt_clust_4="19.11805"></scales>
<rwgt>
<wgt id='bias'>   0.1000000E+01</wgt>
</rwgt>
<clustering>
<clus scale="   19.118">  2  4  1 -1</clus>
<clus scale="   19.118">  2  3  1 -1</clus>
</clustering>
</event>
<event>
 4   2  0.8512900E+003  0.9244932E+02  0.7546771E-02  0.1177581E+00
       21   -1    0    0  501  502  0.00000000000E+00  0.00000000000E+00  0.13192297581E+02  0.13192297581E+02  0.00000000000E+00 0.  1.
        1   -1    0    0  502    0 -0.00000000000E+00 -0.00000000000E+00 -0.21972285624E+03  0.21972285624E+03  0.00000000000E+00 0. -1.
       23    1    1    2    0    0  0.10093098360E+02  0.11390965312E+02 -0.17841135810E+03  0.20094150584E+03  0.91188000000E+02 0. -1.
        1    1    1    2  501    0 -0.10093098360E+02 -0.11390965312E+02 -0.28119200563E+02  0.31973647986E+02  0.00000000000E+00 0. -1.
<scales pt_clust_3="100000.00000" pt_clust_4="15.21922"></scales>
<rwgt>
<wgt id='bias'>   0.1000000E+01</wgt>
</rwgt>
<clustering>
<clus scale="   15.219">  1  4  2 -1</clus>
<clus scale="   15.219">  1  3  2 -1</clus>
</clustering>
</event>
<event>
 3   1  0.8512900E+003  0.9118800E+02  0.7546771E-02  0.1180022E+00
       -2   -1    0    0    0  501 -0.00000000000E+00  0.00000000000E+00  0.86892886767E+00  0.86892886767E+00  0.00000000000E+00 0.  1.
        2   -1    0    0  501    0  0.00000000000E+00 -0.00000000000E+00 -0.23923855143E+04  0.23923855143E+04  0.00000000000E+00 0. -1.
       23    1    1    2    0    0  0.00000000000E+00 -0.00000000000E+00 -0.23915165855E+04  0.23932544432E+04  0.91188000000E+02 0.  1.
<scales pt_clust_3="100000.00000"></scales>
<rwgt>
<wgt id='bias'>   0.1000000E+01</wgt>
</rwgt>
<clustering>
<clus scale="   91.188">  2  3  1 -1</clus>
</clustering>
</event>
<event>
 3   1  0.8512900E+003  0.9118800E+02  0.7546771E-02  0.1180022E+00
        2   -1    0    0  501    0  0.00000000000E+00  0.00000000000E+00  0.43976031336E+02  0.43976031336E+02  0.00000000000E+00 0. -1.
       -2   -1    0    0    0  501 -0.00000000000E+00 -0.00000000000E+00 -0.47271497060E+02  0.47271497060E+02  0.00000000000E+00 0.  1.
       23    1    1    2    0    0  0.00000000000E+00  0.00000000000E+00 -0.32954657244E+01  0.91247528396E+02  0.91188000000E+02 0. -1.
<scales pt_clust_3="100000.00000"></scales>
<rwgt>
<wgt id='bias'>   0.1000000E+01</wgt>
</rwgt>
<clustering>
<clus scale="   91.188">  1  3  2 -1</clus>
</clustering>
</event>
<event>
 4   2  0.8512900E+003  0.9177376E+02  0.7546771E-02  0.1178883E+00
       -5   -1    0    0    0  501 -0.00000000000E+00  0.00000000000E+00  0.12885148947E+03  0.12885148947E+03  0.00000000000E+00 0.  1.
       21   -1    0    0  501  502  0.00000000000E+00 -0.00000000000E+00 -0.21088229093E+02  0.21088229093E+02  0.00000000000E+00 0. -1.
       23    1    1    2    0    0  0.88268344155E+01 -0.54090442140E+01  0.10451618787E+03  0.13909009898E+03  0.91188000000E+02 0. -1.
       -5    1    1    2    0  502 -0.88268344155E+01  0.54090442140E+01  0.32470725102E+01  0.10849619578E+02  0.00000000000E+00 0.  1.
<scales pt_clust_3="100000.00000" pt_clust_4="10.35233"></scales>
<rwgt>
<wgt id='bias'>   0.1000000E+01</wgt>
</rwgt>
<clustering>
<clus scale="   10.352">  2  4  1 -1</clus>
<clus scale="   10.352">  2  3  1 -1</clus>
</clustering>
</event>
<event>
 5   3  0.8512900E+003  0.2018728E+03  0.7546771E-02  0.1053989E+00
       -3   -1    0    0    0  501 -0.00000000000E+00  0.00000000000E+00  0.51247822138E+01  0.51247822138E+01  0.00000000000E+00 0.  1.
        2   -1    0    0  501    0  0.00000000000E+00 -0.00000000000E+00 -0.15465606811E+05  0.15465606811E+05  0.00000000000E+00 0. -1.
       23    1    1    2    0    0  0.31525889930E+02 -0.11643903600E+02 -0.14618942283E+05  0.14619265309E+05  0.91188000000E+02 0.  0.
        2    1    1    2  502    0 -0.30877315486E+02  0.26592031946E+02 -0.83347203756E+03  0.83446760403E+03  0.00000000000E+00 0. -1.
       -3    1    1    2    0  502 -0.64857444424E+00 -0.14948128347E+02 -0.80677077846E+01  0.16998679324E+02  0.00000000000E+00 0.  1.
<scales pt_clust_3="100000.00000" pt_clust_4="100000.00000" pt_clust_5="14.96219"></scales>
<rwgt>
<wgt id='bias'>   0.1000000E+01</wgt>
</rwgt>
<clustering>
<clus scale="   14.962">  1  5  2 -1</clus>
<clus scale="   34.902">  3  4 -1 -1</clus>
<clus scale="  201.873">  2  3  1 -1</clus>
</clustering>
</event>
<event>
 4   2  0.8512900E+003  0.1198644E+03  0.7546771E-02  0.1133326E+00
        1   -1    0    0  502    0 -0.00000000000E+00  0.00000000000E+00  0.95337813631E+03  0.95337813631E+03  0.00000000000E+00 0. -1.
       21   -1    0    0  501  502  0.00000000000E+00 -0.00000000000E+00 -0.10608195928E+02  0.10608195928E+02  0.00000000000E+00 0. -1.
       23    1    1    2    0    0 -0.75893223414E+02 -0.17100965638E+02  0.48107085091E+03  0.49577882097E+03  0.91188000000E+02 0. -1.
        1    1    1    2  501    0  0.75893223414E+02  0.17100965638E+02  0.46169908947E+03  0.46820751127E+03  0.00000000000E+00 0. -1.
<scales pt_clust_3="100000.00000" pt_clust_4="77.79608"></scales>
<rwgt>
<wgt id='bias'>   0.1000000E+01</wgt>
</rwgt>
<clustering>
<clus scale="   77.796">  2  4  1 -1</clus>
<clus scale="   77.796">  2  3  1 -1</clus>
</clustering>
</event>
<event>
 4   2  0.8512900E+003  0.1712513E+03  0.7546771E-02  0.1077771E+00
       21   -1    0    0  501  502  0.00000000000E+00  0.00000000000E+00  0.55131777989E+01  0.55131777989E+01  0.00000000000E+00 0.  1.
        2   -1    0    0  502    0 -0.00000000000E+00 -0.00000000000E+00 -0.13298592599E+04  0.13298592599E+04  0.00000000000E+00 0. -1.
       23    1    1    2    0    0 -0.30414544905E+02 -0.53072181447E+02 -0.81348009186E+03  0.82085736409E+03  0.91188000000E+02 0. -1.
        2    1    1    2  501    0  0.30414544905E+02  0.53072181447E+02 -0.51086599026E+03  0.51451507363E+03  0.00000000000E+00 0. -1.
<scales pt_clust_3="100000.00000" pt_clust_4="100000.00000"></scales>
<rwgt>
<wgt id='bias'>   0.1000000E+01</wgt>
</rwgt>
<clustering>
<clus scale="   61.169">  3  4 -1 -1</clus>
<clus scale="  171.251">  1  3  2 -1</clus>
</clustering>
</event>
<event>
 5   3  0.8512900E+003  0.6945496E+03  0.7546771E-02  0.9045088E-01
       21   -1    0    0  501  502  0.00000000000E+00  0.00000000000E+00  0.53043469356E+03  0.53043469356E+03  0.00000000000E+00 0.  1.
        4   -1    0    0  503    0 -0.00000000000E+00 -0.00000000000E+00 -0.42504080455E+03  0.42504080455E+03  0.00000000000E+00 0. -1.
       23    1    1    2    0    0  0.34575702217E+03 -0.18761399401E+02 -0.10494908554E+03  0.37313465449E+03  0.91188000000E+02 0. -1.
       21    1    1    2  503  502 -0.12232617940E+02  0.10436775200E+02  0.24626033978E+03  0.24678476081E+03  0.00000000000E+00 0.  1.
        4    1    1    2  501    0 -0.33352440423E+03  0.83246242009E+01 -0.35917365230E+02  0.33555608281E+03  0.00000000000E+00 0. -1.
<scales pt_clust_3="100000.00000" pt_clust_4="16.07990" pt_clust_5="100000.00000"></scales>
<rwgt>
<wgt id='bias'>   0.1000000E+01</wgt>
</rwgt>
<clustering>
<clus scale="   16.080">  1  4  2 -1</clus>
<clus scale="  340.261">  3  5 -1 -1</clus>
<clus scale="   16.080">  1  3  2 -1</clus>
</clustering>
</event>
<event>
 3   1  0.8512900E+003  0.9118800E+02  0.7546771E-02  0.1180022E+00
        1   -1    0    0  501    0  0.00000000000E+00  0.00000000000E+00  0.43810328808E+01  0.43810328808E+01  0.00000000000E+00 0. -1.
       -1   -1    0    0    0  501 -0.00000000000E+00 -0.00000000000E+00 -0.47450290663E+03  0.47450290663E+03  0.00000000000E+00 0.  1.
       23    1    1    2    0    0  0.00000000000E+00  0.00000000000E+00 -0.47012187375E+03  0.47888393952E+03  0.91188000000E+02 0. -1.
<scales pt_clust_3="100000.00000"></scales>
<rwgt>
<wgt id='bias'>   0.1000000E+01</wgt>
</rwgt>
<clustering>
<clus scale="   91.188">  1  3  2 -1</clus>
</clustering>
</event>
<event>
 3   1  0.8512900E+003  0.9118800E+02  0.7546771E-02  0.1180022E+00
        1   -1    0    0  501    0  0.00000000000E+00  0.00000000000E+00  0.11152325303E+02  0.11152325303E+02  0.00000000000E+00 0. -1.
       -1   -1    0    0    0  501 -0.00000000000E+00 -0.00000000000E+00 -0.18640173950E+03  0.18640173950E+03  0.00000000000E+00 0.  1.
       23    1    1    2    0    0  0.00000000000E+00  0.00000000000E+00 -0.17524941419E+03  0.19755406480E+03  0.91188000000E+02 0. -1.
<scales pt_clust_3="100000.00000"></scales>
<rwgt>
<wgt id='bias'>   0.1000000E+01</wgt>
</rwgt>
<clustering>
<clus scale="   91.188">  1  3  2 -1</clus>
</clustering>
</event>
<event>
 3   1  0.8512900E+003  0.9118800E+02  0.7546771E-02  0.1180022E+00
       -3   -1    0    0    0  501 -0.00000000000E+00  0.00000000000E+00  0.11063530338E+04  0.11063530338E+04  0.00000000000E+00 0.  1.
        3   -1    0    0  501    0  0.00000000000E+00 -0.00000000000E+00 -0.18789778420E+01  0.18789778420E+01  0.00000000000E+00 0. -1.
       23    1    1    2    0    0  0.00000000000E+00 -0.00000000000E+00  0.11044740560E+04  0.11082320116E+04  0.91188000000E+02 0.  1.
<scales pt_clust_3="100000.00000"></scales>
<rwgt>
<wgt id='bias'>   0.1000000E+01</wgt>
</rwgt>
<clustering>
<clus scale="   91.188">  2  3  1 -1</clus>
</clustering>
</event>
<event>
 5   3  0.8512900E+003  0.1026244E+03  0.7546771E-02  0.1159372E+00
        2   -1    0    0  503    0 -0.00000000000E+00  0.00000000000E+00  0.11148254078E+05  0.11148254078E+05  0.00000000000E+00 0. -1.
       21   -1    0    0  501  502  0.00000000000E+00 -0.00000000000E+00 -0.20269836552E+02  0.20269836552E+02  0.00000000000E+00 0.  1.
       23    1    1    2    0    0  0.27318849535E+01  0.26890664070E+02  0.10853625578E+05  0.10854042289E+05  0.91188000000E+02 0.  0.
       21    1    1    2  503  502 -0.75092600395E+01 -0.23847504461E+02 -0.12232904936E+02  0.27834087349E+02  0.00000000000E+00 0.  1.
        2    1    1    2  501    0  0.47773750860E+01 -0.30431596090E+01  0.28659156875E+03  0.28664753865E+03  0.00000000000E+00 0. -1.
<scales pt_clust_3="100000.00000" pt_clust_4="25.00185" pt_clust_5="100000.00000"></scales>
<rwgt>
<wgt id='bias'>   0.1000000E+01</wgt>
</rwgt>
<clustering>
<clus scale="    5.664">  3  5 -1 -1</clus>
<clus scale="   25.002">  2  4  1 -1</clus>
<clus scale="   25.002">  2  3  1 -1</clus>
</clustering>
</event>
<event>
 3   1  0.8512900E+003  0.9118800E+02  0.7546771E-02  0.1180022E+00
        1   -1    0    0  501    0  0.00000000000E+00  0.00000000000E+00  0.29517051014E+02  0.29517051014E+02  0.00000000000E+00 0. -1.
       -1   -1    0    0    0  501 -0.00000000000E+00 -0.00000000000E+00 -0.70427524587E+02  0.70427524587E+02  0.00000000000E+00 0.  1.
       23    1    1    2    0    0  0.00000000000E+00  0.00000000000E+00 -0.40910473573E+02  0.99944575600E+02  0.91188000000E+02 0. -1.
<scales pt_clust_3="100000.00000"></scales>
<rwgt>
<wgt id='bias'>   0.1000000E+01</wgt>
</rwgt>
<clustering>
<clus scale="   91.188">  1  3  2 -1</clus>
</clustering>
</event>
<event>
 3   1  0.8512900E+003  0.9118800E+02  0.7546771E-02  0.1180022E+00
       -2   -1    0    0    0  501 -0.00000000000E+00  0.00000000000E+00  0.20101107510E+01  0.20101107510E+01  0.00000000000E+00 0.  1.
        2   -1    0    0  501    0  0.00000000000E+00 -0.00000000000E+00 -0.10341782586E+04  0.10341782586E+04  0.00000000000E+00 0. -1.
       23    1    1    2    0    0  0.00000000000E+00 -0.00000000000E+00 -0.10321681478E+04  0.10361883693E+04  0.91188000000E+02 0.  1.
<scales pt_clust_3="100000.00000"></scales>
<rwgt>
<wgt id='bias'>   0.1000000E+01</wgt>
</rwgt>
<clustering>
<clus scale="   91.188">  2  3  1 -1</clus>
</clustering>
</event>
<event>
 3   1  0.8512900E+003  0.9118800E+02  0.7546771E-02  0.1180022E+00
       -3   -1    0    0    0  501 -0.00000000000E+00  0.00000000000E+00  0.83563342475E+03  0.83563342475E+03  0.00000000000E+00 0.  1.
        3   -1    0    0  501    0  0.00000000000E+00 -0.00000000000E+00 -0.24877090533E+01  0.24877090533E+01  0.00000000000E+00 0. -1.
       23    1    1    2    0    0  0.00000000000E+00 -0.00000000000E+00  0.83314571570E+03  0.83812113381E+03  0.91188000000E+02 0.  1.
<scales pt_clust_3="100000.00000"></scales>
<rwgt>
<wgt id='bias'>   0.1000000E+01</wgt>
</rwgt>
<clustering>
<clus scale="   91.188">  2  3  1 -1</clus>
</clustering>
</event>
<event>
 3   1  0.8512900E+003  0.9118800E+02  0.7546771E-02  0.1180022E+00
        2   -1    0    0  501    0  0.00000000000E+00  0.00000000000E+00  0.24681622094E+03  0.24681622094E+03  0.00000000000E+00 0. -1.
       -2   -1    0    0    0  501 -0.00000000000E+00 -0.00000000000E+00 -0.84225130263E+01  0.84225130263E+01  0.00000000000E+00 0.  1.
       23    1    1    2    0    0  0.00000000000E+00  0.00000000000E+00  0.23839370792E+03  0.25523873397E+03  0.91188000000E+02 0. -1.
<scales pt_clust_3="100000.00000"></scales>
<rwgt>
<wgt id='bias'>   0.1000000E+01</wgt>
</rwgt>
<clustering>
<clus scale="   91.188">  1  3  2 -1</clus>
</clustering>
</event>
<event>
 4   2  0.8512900E+003  0.9475493E+02  0.7546771E-02  0.1173232E+00
       -3   -1    0    0    0  501 -0.00000000000E+00  0.00000000000E+00  0.18838133481E+04  0.18838133481E+04  0.00000000000E+00 0.  1.
       21   -1    0    0  501  502  0.00000000000E+00 -0.00000000000E+00 -0.68095004650E+01  0.68095004650E+01  0.00000000000E+00 0.  1.
       23    1    1    2    0    0 -0.12228252993E+02 -0.22665300735E+02  0.18529879677E+04  0.18554090939E+04  0.91188000000E+02 0.  1.
       -3    1    1    2    0  502  0.12228252993E+02  0.22665300735E+02  0.24015880013E+02  0.35213754720E+02  0.00000000000E+00 0.  1.
<scales pt_clust_3="100000.00000" pt_clust_4="25.75356"></scales>
<rwgt>
<wgt id='bias'>   0.1000000E+01</wgt>
</rwgt>
<clustering>
<clus scale="   25.754">  2  4  1 -1</clus>
<clus scale="   25.754">  2  3  1 -1</clus>
</clustering>
</event>
<event>
 3   1  0.8512900E+003  0.9118800E+02  0.7546771E-02  0.1180022E+00
        5   -1    0    0  501    0  0.00000000000E+00  0.00000000000E+00  0.11815228738E+02  0.11815228738E+02  0.00000000000E+00 0. -1.
       -5   -1    0    0    0  501 -0.00000000000E+00 -0.00000000000E+00 -0.17594351173E+03  0.17594351173E+03  0.00000000000E+00 0.  1.
       23    1    1    2    0    0  0.00000000000E+00  0.00000000000E+00 -0.16412828299E+03  0.18775874046E+03  0.91188000000E+02 0. -1.
<scales pt_clust_3="100000.00000"></scales>
<rwgt>
<wgt id='bias'>   0.1000000E+01</wgt>
</rwgt>
<clustering>
<clus scale="   91.188">  1  3  2 -1</clus>
</clustering>
</event>
<event>
 3   1  0.8512900E+003  0.9118800E+02  0.7546771E-02  0.1180022E+00
        5   -1    0    0  501    0  0.00000000000E+00  0.00000000000E+00  0.39032893679E+02  0.39032893679E+02  0.00000000000E+00 0. -1.
       -5   -1    0    0    0  501 -0.00000000000E+00 -0.00000000000E+00 -0.53257973982E+02  0.53257973982E+02  0.00000000000E+00 0.  1.
       23    1    1    2    0    0  0.00000000000E+00  0.00000000000E+00 -0.14225080302E+02  0.92290867661E+02  0.91188000000E+02 0. -1.
<scales pt_clust_3="100000.00000"></scales>
<rwgt>
<wgt id='bias'>   0.1000000E+01</wgt>
</rwgt>
<clustering>
<clus scale="   91.188">  1  3  2 -1</clus>
</clustering>
</event>
<event>
 3   1  0.8512900E+003  0.9118800E+02  0.7546771E-02  0.1180022E+00
       -3   -1    0    0    0  501 -0.00000000000E+00  0.00000000000E+00  0.49887904589E+03  0.49887904589E+03  0.00000000000E+00 0.  1.
        3   -1    0    0  501    0  0.00000000000E+00 -0.00000000000E+00 -0.41669676310E+01  0.41669676310E+01  0.00000000000E+00 0. -1.
       23    1    1    2    0    0  0.00000000000E+00 -0.00000000000E+00  0.49471207826E+03  0.50304601352E+03  0.91188000000E+02 0.  1.
<scales pt_clust_3="100000.00000"></scales>
<rwgt>
<wgt id='bias'>   0.1000000E+01</wgt>
</rwgt>
<clustering>
<clus scale="   91.188">  2  3  1 -1</clus>
</clustering>
</event>
<event>
 5   3  0.8512900E+003  0.9432592E+02  0.7546771E-02  0.1174030E+00
       -5   -1    0    0    0  501 -0.00000000000E+00  0.00000000000E+00  0.46663286383E+02  0.46663286383E+02  0.00000000000E+00 0.  1.
       21   -1    0    0  503  502  0.00000000000E+00 -0.00000000000E+00 -0.64450543682E+04  0.64450543682E+04  0.00000000000E+00 0. -1.
       23    1    1    2    0    0  0.11594621415E+02 -0.21168520046E+02 -0.46353329608E+01  0.94441935295E+02  0.91188000000E+02 0.  1.
       21    1    1    2  503  501 -0.25966536417E+02  0.11982286319E+02 -0.63533869401E+04  0.63534513020E+04  0.00000000000E+00 0. -1.
       -5    1    1    2    0  502  0.14371915001E+02  0.91862337266E+01 -0.40368808807E+02  0.43824417342E+02  0.00000000000E+00 0.  1.
<scales pt_clust_3="100000.00000" pt_clust_4="24.12734" pt_clust_5="17.05694"></scales>
<rwgt>
<wgt id='bias'>   0.1000000E+01</wgt>
</rwgt>
<clustering>
<clus scale="   17.057">  2  5  1 -1</clus>
<clus scale="   24.127">  2  4  1 -1</clus>
<clus scale="   17.057">  2  3  1 -1</clus>
</clustering>
</event>
<event>
 5   3  0.8512900E+003  0.9351780E+02  0.7546771E-02  0.1175548E+00
       21   -1    0    0  501  502  0.00000000000E+00  0.00000000000E+00  0.92902729590E+01  0.92902729590E+01  0.00000000000E+00 0. -1.
        3   -1    0    0  503    0 -0.00000000000E+00 -0.00000000000E+00 -0.12319996554E+04  0.12319996554E+04  0.00000000000E+00 0. -1.
       23    1    1    2    0    0  0.75023782789E+01 -0.24322101452E+02 -0.11550811214E+04  0.11589544852E+04  0.91188000000E+02 0. -1.
       21    1    1    2  503  502 -0.18944434999E+02  0.72597756534E+01 -0.13315552706E+02  0.24267259916E+02  0.00000000000E+00 0. -1.
        3    1    1    2  501    0  0.11442056720E+02  0.17062325798E+02 -0.54312708303E+02  0.58068183258E+02  0.00000000000E+00 0. -1.
<scales pt_clust_3="100000.00000" pt_clust_4="20.28783" pt_clust_5="20.74434"></scales>
<rwgt>
<wgt id='bias'>   0.1000000E+01</wgt>
</rwgt>
<clustering>
<clus scale="   20.288">  1  4  2 -1</clus>
<clus scale="   20.744">  1  5  2 -1</clus>
<clus scale="   20.288">  1  3  2 -1</clus>
</clustering>
</event>
<event>
 4   2  0.8512900E+003  0.1034128E+03  0.7546771E-02  0.1158060E+00
       21   -1    0    0  501  502  0.00000000000E+00  0.00000000000E+00  0.28368618782E+01  0.28368618782E+01  0.00000000000E+00 0.  1.
       -2   -1    0    0    0  501 -0.00000000000E+00 -0.00000000000E+00 -0.25807312337E+04  0.25807312337E+04  0.00000000000E+00 0.  1.
       23    1    1    2    0    0  0.48684821697E+02 -0.29556813216E+01 -0.10951402065E+04  0.11000119414E+04  0.91188000000E+02 0.  1.
       -2    1    1    2    0  502 -0.48684821697E+02  0.29556813216E+01 -0.14827541653E+04  0.14835561542E+04  0.00000000000E+00 0.  1.
<scales pt_clust_3="100000.00000" pt_clust_4="48.77448"></scales>
<rwgt>
<wgt id='bias'>   0.1000000E+01</wgt>
</rwgt>
<clustering>
<clus scale="   48.774">  1  4  2 -1</clus>
<clus scale="   48.774">  1  3  2 -1</clus>
</clustering>
</event>
<event>
 3   1  0.8512900E+003  0.9118800E+02  0.7546771E-02  0.1180022E+00
       -2   -1    0    0    0  501 -0.00000000000E+00  0.00000000000E+00  0.17487169000E+02  0.17487169000E+02  0.00000000000E+00 0.  1.
        2   -1    0    0  501    0  0.00000000000E+00 -0.00000000000E+00 -0.11887646514E+03  0.11887646514E+03  0.00000000000E+00 0. -1.
       23    1    1    2    0    0  0.00000000000E+00 -0.00000000000E+00 -0.10138929614E+03  0.13636363414E+03  0.91188000000E+02 0.  1.
<scales pt_clust_3="100000.00000"></scales>
<rwgt>
<wgt id='bias'>   0.1000000E+01</wgt>
</rwgt>
<clustering>
<clus scale="   91.188">  2  3  1 -1</clus>
</clustering>
</event>
<event>
 3   1  0.8512900E+003  0.9118800E+02  0.7546771E-02  0.1180022E+00
       -3   -1    0    0    0  501 -0.00000000000E+00  0.00000000000E+00  0.42514050709E+02  0.42514050709E+02  0.00000000000E+00 0.  1.
        3   -1    0    0  501    0  0.00000000000E+00 -0.00000000000E+00 -0.48897077586E+02  0.48897077586E+02  0.00000000000E+00 0. -1.
       23    1    1    2    0    0  0.00000000000E+00 -0.00000000000E+00 -0.63830268767E+01  0.91411128295E+02  0.91188000000E+02 0.  1.
<scales pt_clust_3="100000.00000"></scales>
<rwgt>
<wgt id='bias'>   0.1000000E+01</wgt>
</rwgt>
<clustering>
<clus scale="   91.188">  2  3  1 -1</clus>
</clustering>
</event>
<event>
 3   1  0.8512900E+003  0.9118800E+02  0.7546771E-02  0.1180022E+00
        2   -1    0    0  501    0  0.00000000000E+00  0.00000000000E+00  0.13723781581E+05  0.13723781581E+05  0.00000000000E+00 0. -1.
       -2   -1    0    0    0  501 -0.00000000000E+00 -0.00000000000E+00 -0.15147522013E+00  0.15147522013E+00  0.00000000000E+00 0.  1.
       23    1    1    2    0    0  0.00000000000E+00  0.00000000000E+00  0.13723630106E+05  0.13723933056E+05  0.91188000000E+02 0. -1.
<scales pt_clust_3="100000.00000"></scales>
<rwgt>
<wgt id='bias'>   0.1000000E+01</wgt>
</rwgt>
<clustering>
<clus scale="   91.188">  1  3  2 -1</clus>
</clustering>
</event>
<event>
 5   3  0.8512900E+003  0.9678098E+02  0.7546771E-02  0.1169523E+00
       -1   -1    0    0    0  501 -0.00000000000E+00  0.00000000000E+00  0.23897149072E+04  0.23897149072E+04  0.00000000000E+00 0.  1.
       21   -1    0    0  503  502  0.00000000000E+00 -0.00000000000E+00 -0.49775807010E+01  0.49775807010E+01  0.00000000000E+00 0. -1.
       23    1    1    2    0    0 -0.33824185493E+02 -0.94575631184E+01  0.22383065231E+04  0.22404385427E+04  0.91188000000E+02 0.  0.
       21    1    1    2  503  501  0.24664956651E+02 -0.10556146660E+01  0.40659313453E+02  0.47567364647E+02  0.00000000000E+00 0. -1.
       -1    1    1    2    0  502  0.91592288418E+01  0.10513177784E+02  0.10577148996E+03  0.10668658055E+03  0.00000000000E+00 0.  1.
<scales pt_clust_3="100000.00000" pt_clust_4="32.42387" pt_clust_5="13.94340"></scales>
<rwgt>
<wgt id='bias'>   0.1000000E+01</wgt>
</rwgt>
<clustering>
<clus scale="   13.943">  2  5  1 -1</clus>
<clus scale="   32.424">  2  4  1 -1</clus>
<clus scale="   13.943">  2  3  1 -1</clus>
</clustering>
</event>
<event>
 5   3  0.8512900E+003  0.1922453E+03  0.7546771E-02  0.1060941E+00
        3   -1    0    0  502    0 -0.00000000000E+00  0.00000000000E+00  0.74368386366E+02  0.74368386366E+02  0.00000000000E+00 0. -1.
       21   -1    0    0  503  502  0.00000000000E+00 -0.00000000000E+00 -0.82438389554E+03  0.82438389554E+03  0.00000000000E+00 0. -1.
       23    1    1    2    0    0  0.34929233985E+02  0.16559880513E+03 -0.68767675700E+03  0.71404312832E+03  0.91188000000E+02 0. -1.
       21    1    1    2  503  501 -0.34813708541E+02 -0.71667630397E+02 -0.23542290196E+02  0.83081183048E+02  0.00000000000E+00 0. -1.
        3    1    1    2  501    0 -0.11552544446E+00 -0.93931174732E+02 -0.38796461980E+02  0.10162797053E+03  0.00000000000E+00 0. -1.
<scales pt_clust_3="100000.00000" pt_clust_4="36.70536" pt_clust_5="173.87174"></scales>
<rwgt>
<wgt id='bias'>   0.1000000E+01</wgt>
</rwgt>
<clustering>
<clus scale="   36.705">  4  5 -1 -1</clus>
<clus scale="  173.872">  2  4  1 -1</clus>
<clus scale="  173.872">  2  3  1 -1</clus>
</clustering>
</event>
<event>
 5   3  0.8512900E+003  0.1168003E+03  0.7546771E-02  0.1137589E+00
       -3   -1    0    0    0  502 -0.00000000000E+00  0.00000000000E+00  0.48920698072E+02  0.48920698072E+02  0.00000000000E+00 0.  1.
       -1   -1    0    0    0  501  0.00000000000E+00 -0.00000000000E+00 -0.64295258321E+03  0.64295258321E+03  0.00000000000E+00 0.  1.
       23    1    1    2    0    0  0.33040743861E+02  0.57386070552E+01 -0.52052355919E+03  0.52951359698E+03  0.91188000000E+02 0.  1.
       -1    1    1    2    0  502  0.42269940417E+02  0.25335945704E+01 -0.75505954051E+02  0.86569717924E+02  0.00000000000E+00 0.  1.
       -3    1    1    2    0  501 -0.75310684278E+02 -0.82722016256E+01  0.19976281044E+01  0.75789966382E+02  0.00000000000E+00 0.  1.
<scales pt_clust_3="100000.00000" pt_clust_4="42.34580" pt_clust_5="72.98672"></scales>
<rwgt>
<wgt id='bias'>   0.1000000E+01</wgt>
</rwgt>
<clustering>
<clus scale="   42.346">  2  4  1 -1</clus>
<clus scale="   72.987">  2  5  1 -1</clus>
<clus scale="   42.346">  2  3  1 -1</clus>
</clustering>
</event>
<event>
 4   2  0.8512900E+003  0.9272750E+02  0.7546771E-02  0.1177049E+00
       21   -1    0    0  501  502  0.00000000000E+00  0.00000000000E+00  0.74310399464E+01  0.74310399464E+01  0.00000000000E+00 0. -1.
       -5   -1    0    0    0  501 -0.00000000000E+00 -0.00000000000E+00 -0.40489726106E+03  0.40489726106E+03  0.00000000000E+00 0.  1.
       23    1    1    2    0    0  0.50506490748E+01 -0.16050799219E+02 -0.34384765375E+03  0.35613143296E+03  0.91188000000E+02 0.  1.
       -5    1    1    2    0  502 -0.50506490748E+01  0.16050799219E+02 -0.53618567367E+02  0.56196868046E+02  0.00000000000E+00 0.  1.
<scales pt_clust_3="100000.00000" pt_clust_4="16.82668"></scales>
<rwgt>
<wgt id='bias'>   0.1000000E+01</wgt>
</rwgt>
<clustering>
<clus scale="   16.827">  1  4  2 -1</clus>
<clus scale="   16.827">  1  3  2 -1</clus>
</clustering>
</event>
<event>
 5   3  0.8512900E+003  0.9851121E+02  0.7546771E-02  0.1166435E+00
        1   -1    0    0  502    0 -0.00000000000E+00  0.00000000000E+00  0.15237349516E+04  0.15237349516E+04  0.00000000000E+00 0. -1.
       21   -1    0    0  503  502  0.00000000000E+00 -0.00000000000E+00 -0.40007859894E+01  0.40007859894E+01  0.00000000000E+00 0.  1.
       23    1    1    2    0    0  0.49382925417E+01  0.38585824509E+02  0.10622109838E+04  0.10668273891E+04  0.91188000000E+02 0.  0.
       21    1    1    2  503  501 -0.10599581759E+02 -0.19270521440E+01  0.31863474676E+02  0.33635482483E+02  0.00000000000E+00 0. -1.
        1    1    1    2  501    0  0.56612892170E+01 -0.36658772365E+02  0.42565970712E+03  0.42727286604E+03  0.00000000000E+00 0. -1.
<scales pt_clust_3="100000.00000" pt_clust_4="10.77333" pt_clust_5="37.27209"></scales>
<rwgt>
<wgt id='bias'>   0.1000000E+01</wgt>
</rwgt>
<clustering>
<clus scale="   10.773">  2  4  1 -1</clus>
<clus scale="   37.272">  2  5  1 -1</clus>
<clus scale="   10.773">  2  3  1 -1</clus>
</clustering>
</event>
<event>
 5   3  0.8512900E+003  0.9329849E+02  0.7546771E-02  0.1175963E+00
       21   -1    0    0  501  502  0.00000000000E+00  0.00000000000E+00  0.11252361265E+05  0.11252361265E+05  0.00000000000E+00 0.  1.
        2   -1    0    0  503    0 -0.00000000000E+00 -0.00000000000E+00 -0.45807179135E+01  0.45807179135E+01  0.00000000000E+00 0. -1.
       23    1    1    2    0    0 -0.23359991299E+02 -0.17623516273E+02  0.57224215536E+03  0.58020049400E+03  0.91188000000E+02 0. -1.
       21    1    1    2  503  502  0.53532680879E+01  0.15437648527E+02  0.10537939770E+05  0.10537952437E+05  0.00000000000E+00 0.  1.
        2    1    1    2  501    0  0.18006723211E+02  0.21858677455E+01  0.13759862229E+03  0.13878905200E+03  0.00000000000E+00 0. -1.
<scales pt_clust_3="100000.00000" pt_clust_4="16.33948" pt_clust_5="19.73214"></scales>
<rwgt>
<wgt id='bias'>   0.1000000E+01</wgt>
</rwgt>
<clustering>
<clus scale="   16.339">  1  4  2 -1</clus>
<clus scale="   19.732">  1  5  2 -1</clus>
<clus scale="   16.339">  1  3  2 -1</clus>
</clustering>
</event>
<event>
 3   1  0.8512900E+003  0.9118800E+02  0.7546771E-02  0.1180022E+00
       -3   -1    0    0    0  501 -0.00000000000E+00  0.00000000000E+00  0.42002417401E+02  0.42002417401E+02  0.00000000000E+00 0.  1.
        3   -1    0    0  501    0  0.00000000000E+00 -0.00000000000E+00 -0.49492695055E+02  0.49492695055E+02  0.00000000000E+00 0. -1.
       23    1    1    2    0    0  0.00000000000E+00 -0.00000000000E+00 -0.74902776544E+01  0.91495112456E+02  0.91188000000E+02 0.  1.
<scales pt_clust_3="100000.00000"></scales>
<rwgt>
<wgt id='bias'>   0.1000000E+01</wgt>
</rwgt>
<clustering>
<clus scale="   91.188">  2  3  1 -1</clus>
</clustering>
</event>
<event>
 5   3  0.8512900E+003  0.9231002E+02  0.7546771E-02  0.1177849E+00
        1   -1    0    0  503    0 -0.00000000000E+00  0.00000000000E+00  0.18234567460E+02  0.18234567460E+02  0.00000000000E+00 0. -1.
       21   -1    0    0  501  502  0.00000000000E+00 -0.00000000000E+00 -0.32790405644E+03  0.32790405644E+03  0.00000000000E+00 0.  1.
       23    1    1    2    0    0 -0.21859665192E+00 -0.18048845651E+01 -0.24662619593E+03  0.26295063654E+03  0.91188000000E+02 0.  1.
       21    1    1    2  503  502  0.10141160429E+02  0.14436267027E+02 -0.64679294847E+02  0.67042226413E+02  0.00000000000E+00 0.  1.
        1    1    1    2  501    0 -0.99225637771E+01 -0.12631382462E+02  0.16360017941E+01  0.16145760951E+02  0.00000000000E+00 0. -1.
<scales pt_clust_3="100000.00000" pt_clust_4="14.34881" pt_clust_5="16.06267"></scales>
<rwgt>
<wgt id='bias'>   0.1000000E+01</wgt>
</rwgt>
<clustering>
<clus scale="   16.063">  2  5  1 -1</clus>
<clus scale="   14.349">  2  4  1 -1</clus>
<clus scale="   16.063">  2  3  1 -1</clus>
</clustering>
</event>
<event>
 3   1  0.8512900E+003  0.9118800E+02  0.7546771E-02  0.1180022E+00
        4   -1    0    0  501    0  0.00000000000E+00  0.00000000000E+00  0.23473000539E+04  0.23473000539E+04  0.00000000000E+00 0.  1.
       -4   -1    0    0    0  501 -0.00000000000E+00 -0.00000000000E+00 -0.88561870587E+00  0.88561870587E+00  0.00000000000E+00 0. -1.
       23    1    1    2    0    0  0.00000000000E+00  0.00000000000E+00  0.23464144352E+04  0.23481856726E+04  0.91188000000E+02 0.  1.
<scales pt_clust_3="100000.00000"></scales>
<rwgt>
<wgt id='bias'>   0.1000000E+01</wgt>
</rwgt>
<clustering>
<clus scale="   91.188">  1  3  2 -1</clus>
</clustering>
</event>
<event>
 4   2  0.8512900E+003  0.1586293E+03  0.7546771E-02  0.1089225E+00
       21   -1    0    0  501  502  0.00000000000E+00  0.00000000000E+00  0.77007450705E+01  0.77007450705E+01  0.00000000000E+00 0. -1.
        3   -1    0    0  502    0 -0.00000000000E+00 -0.00000000000E+00 -0.81690964491E+03  0.81690964491E+03  0.00000000000E+00 0. -1.
       23    1    1    2    0    0  0.16839913190E+02 -0.44273167730E+02 -0.66311482461E+03  0.67102922292E+03  0.91188000000E+02 0. -1.
        3    1    1    2  501    0 -0.16839913190E+02  0.44273167730E+02 -0.14609407523E+03  0.15358116705E+03  0.00000000000E+00 0. -1.
<scales pt_clust_3="100000.00000" pt_clust_4="100000.00000"></scales>
<rwgt>
<wgt id='bias'>   0.1000000E+01</wgt>
</rwgt>
<clustering>
<clus scale="   47.368">  3  4 -1 -1</clus>
<clus scale="  158.629">  1  3  2 -1</clus>
</clustering>
</event>
<event>
 5   3  0.8512900E+003  0.2384863E+03  0.7546771E-02  0.1052949E+00
       21   -1    0    0  503  502  0.00000000000E+00  0.00000000000E+00  0.43077142846E+02  0.43077142846E+02  0.00000000000E+00 0.  1.
        2   -1    0    0  502    0 -0.00000000000E+00 -0.00000000000E+00 -0.19204250864E+05  0.19204250864E+05  0.00000000000E+00 0. -1.
       23    1    1    2    0    0  0.22339735237E+02 -0.84183308567E+02 -0.10938799119E+05  0.10939525918E+05  0.91188000000E+02 0. -1.
       21    1    1    2  503  501  0.20333466404E+03  0.12662737934E+03 -0.30841438410E+03  0.39051108962E+03  0.00000000000E+00 0.  1.
        2    1    1    2  501    0 -0.22567439927E+03 -0.42444070770E+02 -0.79139602177E+04  0.79172909988E+04  0.00000000000E+00 0. -1.
<scales pt_clust_3="100000.00000" pt_clust_4="238.48632" pt_clust_5="100000.00000"></scales>
<rwgt>
<wgt id='bias'>   0.1000000E+01</wgt>
</rwgt>
<clustering>
<clus scale="  126.100">  2  3  1 -1</clus>
<clus scale="  238.486">  1  4  2 -1</clus>
<clus scale="  238.486">  1  3  2 -1</clus>
</clustering>
</event>
<event>
 4   2  0.8512900E+003  0.9228430E+02  0.7546771E-02  0.1177898E+00
       -1   -1    0    0    0  501 -0.00000000000E+00  0.00000000000E+00  0.64284393311E+00  0.64284393311E+00  0.00000000000E+00 0.  1.
       21   -1    0    0  501  502  0.00000000000E+00 -0.00000000000E+00 -0.12152842109E+05  0.12152842109E+05  0.00000000000E+00 0.  1.
       23    1    1    2    0    0 -0.71595391546E+01  0.12242627665E+02 -0.33410275813E+04  0.33423018552E+04  0.91188000000E+02 0.  1.
       -1    1    1    2    0  502  0.71595391546E+01 -0.12242627665E+02 -0.88111716838E+04  0.88111830978E+04  0.00000000000E+00 0.  1.
<scales pt_clust_3="100000.00000" pt_clust_4="14.18242"></scales>
<rwgt>
<wgt id='bias'>   0.1000000E+01</wgt>
</rwgt>
<clustering>
<clus scale="   14.182">  2  4  1 -1</clus>
<clus scale="   14.182">  2  3  1 -1</clus>
</clustering>
</event>
<event>
 5   3  0.8512900E+003  0.9325266E+02  0.7546771E-02  0.1176050E+00
       -1   -1    0    0    0  501 -0.00000000000E+00  0.00000000000E+00  0.89777668494E+02  0.89777668494E+02  0.00000000000E+00 0.  1.
       21   -1    0    0  503  502  0.00000000000E+00 -0.00000000000E+00 -0.86915396155E+03  0.86915396155E+03  0.00000000000E+00 0.  1.
       23    1    1    2    0    0 -0.19359722205E+02 -0.46801169276E+01  0.65262312760E+02  0.11389083874E+03  0.91188000000E+02 0.  1.
       21    1    1    2  503  501  0.58153400323E+01  0.99359659779E+01 -0.39274945896E+03  0.39291815829E+03  0.00000000000E+00 0. -1.
       -1    1    1    2    0  502  0.13544382172E+02 -0.52558490503E+01 -0.45188914686E+03  0.45212263301E+03  0.00000000000E+00 0.  1.
<scales pt_clust_3="100000.00000" pt_clust_4="11.51267" pt_clust_5="19.51426"></scales>
<rwgt>
<wgt id='bias'>   0.1000000E+01</wgt>
</rwgt>
<clustering>
<clus scale="   11.513">  2  4  1 -1</clus>
<clus scale="   19.514">  2  5  1 -1</clus>
<clus scale="   11.513">  2  3  1 -1</clus>
</clustering>
</event>
<event>
 3   1  0.8512900E+003  0.9118800E+02  0.7546771E-02  0.1180022E+00
       -2   -1    0    0    0  501 -0.00000000000E+00  0.00000000000E+00  0.14112776606E+03  0.14112776606E+03  0.00000000000E+00 0.  1.
        2   -1    0    0  501    0  0.00000000000E+00 -0.00000000000E+00 -0.14730005965E+02  0.14730005965E+02  0.00000000000E+00 0. -1.
       23    1    1    2    0    0  0.00000000000E+00 -0.00000000000E+00  0.12639776010E+03  0.15585777203E+03  0.91188000000E+02 0.  1.
<scales pt_clust_3="100000.00000"></scales>
<rwgt>
<wgt id='bias'>   0.1000000E+01</wgt>
</rwgt>
<clustering>
<clus scale="   91.188">  2  3  1 -1</clus>
</clustering>
</event>
<event>
 3   1  0.8512900E+003  0.9118800E+02  0.7546771E-02  0.1180022E+00
       -2   -1    0    0    0  501 -0.00000000000E+00  0.00000000000E+00  0.20149123392E+01  0.20149123392E+01  0.00000000000E+00 0.  1.
        2   -1    0    0  501    0  0.00000000000E+00 -0.00000000000E+00 -0.10317137850E+04  0.10317137850E+04  0.00000000000E+00 0. -1.
       23    1    1    2    0    0  0.00000000000E+00 -0.00000000000E+00 -0.10296988727E+04  0.10337286974E+04  0.91188000000E+02 0.  1.
<scales pt_clust_3="100000.00000"></scales>
<rwgt>
<wgt id='bias'>   0.1000000E+01</wgt>
</rwgt>
<clustering>
<clus scale="   91.188">  2  3  1 -1</clus>
</clustering>
</event>
<event>
 5   3  0.8512900E+003  0.1693258E+03  0.7546771E-02  0.1079447E+00
       21   -1    0    0  501  502  0.00000000000E+00  0.00000000000E+00  0.41684604385E+04  0.41684604385E+04  0.00000000000E+00 0. -1.
       -4   -1    0    0    0  501 -0.00000000000E+00 -0.00000000000E+00 -0.11145843505E+02  0.11145843505E+02  0.00000000000E+00 0.  1.
       23    1    1    2    0    0 -0.40286184565E+02  0.20209072832E+02  0.30705153547E+03  0.32346140430E+03  0.91188000000E+02 0.  1.
       21    1    1    2  503  502 -0.18573479137E+02 -0.37804404024E+02  0.35178843302E+04  0.35181364822E+04  0.00000000000E+00 0. -1.
       -4    1    1    2    0  503  0.58859663702E+02  0.17595331191E+02  0.33237872938E+03  0.33800839551E+03  0.00000000000E+00 0.  1.
<scales pt_clust_3="100000.00000" pt_clust_4="42.12063" pt_clust_5="100000.00000"></scales>
<rwgt>
<wgt id='bias'>   0.1000000E+01</wgt>
</rwgt>
<clustering>
<clus scale="   42.121">  1  4  2 -1</clus>
<clus scale="   49.324">  3  5 -1 -1</clus>
<clus scale="   42.121">  1  3  2 -1</clus>
</clustering>
</event>
<event>
 3   1  0.8512900E+003  0.9118800E+02  0.7546771E-02  0.1180022E+00
        1   -1    0    0  501    0  0.00000000000E+00  0.00000000000E+00  0.63025949855E+00  0.63025949855E+00  0.00000000000E+00 0. -1.
       -1   -1    0    0    0  501 -0.00000000000E+00 -0.00000000000E+00 -0.32983443182E+04  0.32983443182E+04  0.00000000000E+00 0.  1.
       23    1    1    2    0    0  0.00000000000E+00  0.00000000000E+00 -0.32977140587E+04  0.32989745777E+04  0.91188000000E+02 0. -1.
<scales pt_clust_3="100000.00000"></scales>
<rwgt>
<wgt id='bias'>   0.1000000E+01</wgt>
</rwgt>
<clustering>
<clus scale="   91.188">  1  3  2 -1</clus>
</clustering>
</event>
<event>
 4   2  0.8512900E+003  0.9239799E+02  0.7546771E-02  0.1177680E+00
       -2   -1    0    0    0  501 -0.00000000000E+00  0.00000000000E+00  0.35202270458E+03  0.35202270458E+03  0.00000000000E+00 0.  1.
        2   -1    0    0  502    0  0.00000000000E+00 -0.00000000000E+00 -0.12652150115E+02  0.12652150115E+02  0.00000000000E+00 0. -1.
       23    1    1    2    0    0  0.11823755076E+02  0.90739011380E+01  0.33717955802E+03  0.34961041540E+03  0.91188000000E+02 0.  1.
       21    1    1    2  502  501 -0.11823755076E+02 -0.90739011380E+01  0.21909964493E+01  0.15064439299E+02  0.00000000000E+00 0. -1.
<scales pt_clust_3="100000.00000" pt_clust_4="14.90426"></scales>
<rwgt>
<wgt id='bias'>   0.1000000E+01</wgt>
</rwgt>
<clustering>
<clus scale="   14.904">  2  4  1 -1</clus>
<clus scale="   14.904">  2  3  1 -1</clus>
</clustering>
</event>
<event>
 4   2  0.8512900E+003  0.9252625E+02  0.7546771E-02  0.1177434E+00
       -1   -1    0    0    0  501 -0.00000000000E+00  0.00000000000E+00  0.29985571696E+04  0.29985571696E+04  0.00000000000E+00 0.  1.
        1   -1    0    0  502    0  0.00000000000E+00 -0.00000000000E+00 -0.97712258647E+00  0.97712258647E+00  0.00000000000E+00 0. -1.
       23    1    1    2    0    0  0.57318417755E+01  0.14594561832E+02  0.25949711711E+04  0.25966202043E+04  0.91188000000E+02 0. -1.
       21    1    1    2  502  501 -0.57318417755E+01 -0.14594561832E+02  0.40260887593E+03  0.40291408789E+03  0.00000000000E+00 0.  1.
<scales pt_clust_3="100000.00000" pt_clust_4="15.67977"></scales>
<rwgt>
<wgt id='bias'>   0.1000000E+01</wgt>
</rwgt>
<clustering>
<clus scale="   15.680">  2  4  1 -1</clus>
<clus scale="   15.680">  2  3  1 -1</clus>
</clustering>
</event>
<event>
 3   1  0.8512900E+003  0.9118800E+02  0.7546771E-02  0.1180022E+00
       -1   -1    0    0    0  501 -0.00000000000E+00  0.00000000000E+00  0.26546613684E+02  0.26546613684E+02  0.00000000000E+00 0.  1.
        1   -1    0    0  501    0  0.00000000000E+00 -0.00000000000E+00 -0.78308023039E+02  0.78308023039E+02  0.00000000000E+00 0. -1.
       23    1    1    2    0    0  0.00000000000E+00 -0.00000000000E+00 -0.51761409354E+02  0.10485463672E+03  0.91188000000E+02 0.  1.
<scales pt_clust_3="100000.00000"></scales>
<rwgt>
<wgt id='bias'>   0.1000000E+01</wgt>
</rwgt>
<clustering>
<clus scale="   91.188">  2  3  1 -1</clus>
</clustering>
</event>
<event>
 5   3  0.8512900E+003  0.1528969E+03  0.7546771E-02  0.1094820E+00
        1   -1    0    0  502    0 -0.00000000000E+00  0.00000000000E+00  0.51802088671E+03  0.51802088671E+03  0.00000000000E+00 0. -1.
       21   -1    0    0  503  502  0.00000000000E+00 -0.00000000000E+00 -0.29934358784E+02  0.29934358784E+02  0.00000000000E+00 0. -1.
       23    1    1    2    0    0  0.33174239481E+02  0.19500310655E+02  0.31773875319E+03  0.33279717382E+03  0.91188000000E+02 0. -1.
       21    1    1    2  503  501  0.19978388522E+02 -0.28572480673E+02 -0.16528173769E+01  0.34903502189E+02  0.00000000000E+00 0. -1.
        1    1    1    2  501    0 -0.53152628003E+02  0.90721700180E+01  0.17200059212E+03  0.18025456949E+03  0.00000000000E+00 0. -1.
<scales pt_clust_3="100000.00000" pt_clust_4="34.86435" pt_clust_5="100000.00000"></scales>
<rwgt>
<wgt id='bias'>   0.1000000E+01</wgt>
</rwgt>
<clustering>
<clus scale="   34.864">  2  4  1 -1</clus>
<clus scale="   46.091">  3  5 -1 -1</clus>
<clus scale="   34.864">  2  3  1 -1</clus>
</clustering>
</event>
<event>
 5   3  0.8512900E+003  0.1516660E+03  0.7546771E-02  0.1096056E+00
       21   -1    0    0  503  502  0.00000000000E+00  0.00000000000E+00  0.14571624381E+02  0.14571624381E+02  0.00000000000E+00 0.  1.
       -4   -1    0    0    0  501 -0.00000000000E+00 -0.00000000000E+00 -0.75702138695E+03  0.75702138695E+03  0.00000000000E+00 0.  1.
       23    1    1    2    0    0 -0.11701775610E+01 -0.32581222797E+02 -0.66853663923E+03  0.67551417064E+03  0.91188000000E+02 0.  1.
       21    1    1    2  503  501  0.14259013054E+02 -0.98780419412E+00 -0.50156482176E+00  0.14301985095E+02  0.00000000000E+00 0.  1.
       -4    1    1    2    0  502 -0.13088835493E+02  0.33569026991E+02 -0.73411558513E+02  0.81776855595E+02  0.00000000000E+00 0.  1.
<scales pt_clust_3="100000.00000" pt_clust_4="14.29319" pt_clust_5="100000.00000"></scales>
<rwgt>
<wgt id='bias'>   0.1000000E+01</wgt>
</rwgt>
<clustering>
<clus scale="   14.293">  1  4  2 -1</clus>
<clus scale="   33.455">  3  5 -1 -1</clus>
<clus scale="   14.293">  1  3  2 -1</clus>
</clustering>
</event>
<event>
 3   1  0.8512900E+003  0.9118800E+02  0.7546771E-02  0.1180022E+00
        2   -1    0    0  501    0  0.00000000000E+00  0.00000000000E+00  0.43852030523E+04  0.43852030523E+04  0.00000000000E+00 0. -1.
       -2   -1    0    0    0  501 -0.00000000000E+00 -0.00000000000E+00 -0.47405167131E+00  0.47405167131E+00  0.00000000000E+00 0.  1.
       23    1    1    2    0    0  0.00000000000E+00  0.00000000000E+00  0.43847290006E+04  0.43856771040E+04  0.91188000000E+02 0. -1.
<scales pt_clust_3="100000.00000"></scales>
<rwgt>
<wgt id='bias'>   0.1000000E+01</wgt>
</rwgt>
<clustering>
<clus scale="   91.188">  1  3  2 -1</clus>
</clustering>
</event>
<event>
 3   1  0.8512900E+003  0.9118800E+02  0.7546771E-02  0.1180022E+00
       -1   -1    0    0    0  501 -0.00000000000E+00  0.00000000000E+00  0.57631967656E+03  0.57631967656E+03  0.00000000000E+00 0.  1.
        1   -1    0    0  501    0  0.00000000000E+00 -0.00000000000E+00 -0.36070481723E+01  0.36070481723E+01  0.00000000000E+00 0. -1.
       23    1    1    2    0    0  0.00000000000E+00 -0.00000000000E+00  0.57271262839E+03  0.57992672474E+03  0.91188000000E+02 0.  1.
<scales pt_clust_3="100000.00000"></scales>
<rwgt>
<wgt id='bias'>   0.1000000E+01</wgt>
</rwgt>
<clustering>
<clus scale="   91.188">  2  3  1 -1</clus>
</clustering>
</event>
<event>
 3   1  0.8512900E+003  0.9118800E+02  0.7546771E-02  0.1180022E+00
       -4   -1    0    0    0  501 -0.00000000000E+00  0.00000000000E+00  0.60358117673E+03  0.60358117673E+03  0.00000000000E+00 0.  1.
        4   -1    0    0  501    0  0.00000000000E+00 -0.00000000000E+00 -0.34441313217E+01  0.34441313217E+01  0.00000000000E+00 0. -1.
       23    1    1    2    0    0  0.00000000000E+00 -0.00000000000E+00  0.60013704541E+03  0.60702530806E+03  0.91188000000E+02 0.  1.
<scales pt_clust_3="100000.00000"></scales>
<rwgt>
<wgt id='bias'>   0.1000000E+01</wgt>
</rwgt>
<clustering>
<clus scale="   91.188">  2  3  1 -1</clus>
</clustering>
</event>
<event>
 3   1  0.8512900E+003  0.9118800E+02  0.7546771E-02  0.1180022E+00
       -5   -1    0    0    0  501 -0.00000000000E+00  0.00000000000E+00  0.49588423114E+03  0.49588423114E+03  0.00000000000E+00 0.  1.
        5   -1    0    0  501    0  0.00000000000E+00 -0.00000000000E+00 -0.41921333760E+01  0.41921333760E+01  0.00000000000E+00 0. -1.
       23    1    1    2    0    0  0.00000000000E+00 -0.00000000000E+00  0.49169209776E+03  0.50007636451E+03  0.91188000000E+02 0.  1.
<scales pt_clust_3="100000.00000"></scales>
<rwgt>
<wgt id='bias'>   0.1000000E+01</wgt>
</rwgt>
<clustering>
<clus scale="   91.188">  2  3  1 -1</clus>
</clustering>
</event>
<event>
 4   2  0.8512900E+003  0.9186445E+02  0.7546771E-02  0.1178708E+00
       -2   -1    0    0    0  501 -0.00000000000E+00  0.00000000000E+00  0.60987259663E+00  0.60987259663E+00  0.00000000000E+00 0.  1.
        2   -1    0    0  502    0  0.00000000000E+00 -0.00000000000E+00 -0.10345543574E+05  0.10345543574E+05  0.00000000000E+00 0. -1.
       23    1    1    2    0    0 -0.10594802042E+02 -0.34023688177E+01 -0.10268793161E+05  0.10269204062E+05  0.91188000000E+02 0. -1.
       21    1    1    2  502  501  0.10594802042E+02  0.34023688177E+01 -0.76140540228E+02  0.76949384728E+02  0.00000000000E+00 0.  1.
<scales pt_clust_3="100000.00000" pt_clust_4="11.12771"></scales>
<rwgt>
<wgt id='bias'>   0.1000000E+01</wgt>
</rwgt>
<clustering>
<clus scale="   11.128">  1  4  2 -1</clus>
<clus scale="   91.864">  2  3  1 -1</clus>
</clustering>
</event>
<event>
 4   2  0.8512900E+003  0.1118583E+03  0.7546771E-02  0.1144776E+00
        1   -1    0    0  502    0 -0.00000000000E+00  0.00000000000E+00  0.29663809521E+04  0.29663809521E+04  0.00000000000E+00 0. -1.
       21   -1    0    0  501  502  0.00000000000E+00 -0.00000000000E+00 -0.10691291685E+02  0.10691291685E+02  0.00000000000E+00 0. -1.
       23    1    1    2    0    0 -0.62583380339E+02 -0.16743610935E+02  0.28559478118E+04  0.28581375374E+04  0.91188000000E+02 0. -1.
        1    1    1    2  501    0  0.62583380339E+02  0.16743610935E+02  0.99741848614E+02  0.11893470632E+03  0.00000000000E+00 0. -1.
<scales pt_clust_3="100000.00000" pt_clust_4="64.78447"></scales>
<rwgt>
<wgt id='bias'>   0.1000000E+01</wgt>
</rwgt>
<clustering>
<clus scale="   64.784">  2  4  1 -1</clus>
<clus scale="   64.784">  2  3  1 -1</clus>
</clustering>
</event>
<event>
 3   1  0.8512900E+003  0.9118800E+02  0.7546771E-02  0.1180022E+00
       -2   -1    0    0    0  501 -0.00000000000E+00  0.00000000000E+00  0.64902517165E+00  0.64902517165E+00  0.00000000000E+00 0.  1.
        2   -1    0    0  501    0  0.00000000000E+00 -0.00000000000E+00 -0.32029772138E+04  0.32029772138E+04  0.00000000000E+00 0. -1.
       23    1    1    2    0    0  0.00000000000E+00 -0.00000000000E+00 -0.32023281887E+04  0.32036262390E+04  0.91188000000E+02 0.  1.
<scales pt_clust_3="100000.00000"></scales>
<rwgt>
<wgt id='bias'>   0.1000000E+01</wgt>
</rwgt>
<clustering>
<clus scale="   91.188">  2  3  1 -1</clus>
</clustering>
</event>
<event>
 4   2  0.8512900E+003  0.1499613E+03  0.7546771E-02  0.1097789E+00
       21   -1    0    0  501  502  0.00000000000E+00  0.00000000000E+00  0.14348943669E+03  0.14348943669E+03  0.00000000000E+00 0.  1.
       -3   -1    0    0    0  501 -0.00000000000E+00 -0.00000000000E+00 -0.25994096984E+03  0.25994096984E+03  0.00000000000E+00 0.  1.
       23    1    1    2    0    0  0.11590076125E+03 -0.27205959356E+02 -0.20575702622E+03  0.25460627617E+03  0.91188000000E+02 0.  1.
       -3    1    1    2    0  502 -0.11590076125E+03  0.27205959356E+02  0.89305493070E+02  0.14882413035E+03  0.00000000000E+00 0.  1.
<scales pt_clust_3="100000.00000" pt_clust_4="119.05104"></scales>
<rwgt>
<wgt id='bias'>   0.1000000E+01</wgt>
</rwgt>
<clustering>
<clus scale="  119.051">  1  4  2 -1</clus>
<clus scale="  119.051">  1  3  2 -1</clus>
</clustering>
</event>
<event>
 3   1  0.8512900E+003  0.9118800E+02  0.7546771E-02  0.1180022E+00
       -2   -1    0    0    0  501 -0.00000000000E+00  0.00000000000E+00  0.10838396235E+04  0.10838396235E+04  0.00000000000E+00 0.  1.
        2   -1    0    0  501    0  0.00000000000E+00 -0.00000000000E+00 -0.19180077855E+01  0.19180077855E+01  0.00000000000E+00 0. -1.
       23    1    1    2    0    0  0.00000000000E+00 -0.00000000000E+00  0.10819216157E+04  0.10857576313E+04  0.91188000000E+02 0.  1.
<scales pt_clust_3="100000.00000"></scales>
<rwgt>
<wgt id='bias'>   0.1000000E+01</wgt>
</rwgt>
<clustering>
<clus scale="   91.188">  2  3  1 -1</clus>
</clustering>
</event>
<event>
 3   1  0.8512900E+003  0.9118800E+02  0.7546771E-02  0.1180022E+00
       -3   -1    0    0    0  501 -0.00000000000E+00  0.00000000000E+00  0.36387532883E+02  0.36387532883E+02  0.00000000000E+00 0.  1.
        3   -1    0    0  501    0  0.00000000000E+00 -0.00000000000E+00 -0.57129809890E+02  0.57129809890E+02  0.00000000000E+00 0. -1.
       23    1    1    2    0    0  0.00000000000E+00 -0.00000000000E+00 -0.20742277007E+02  0.93517342774E+02  0.91188000000E+02 0.  1.
<scales pt_clust_3="100000.00000"></scales>
<rwgt>
<wgt id='bias'>   0.1000000E+01</wgt>
</rwgt>
<clustering>
<clus scale="   91.188">  2  3  1 -1</clus>
</clustering>
</event>
<event>
 4   2  0.8512900E+003  0.1484357E+03  0.7546771E-02  0.1099362E+00
       21   -1    0    0  501  502  0.00000000000E+00  0.00000000000E+00  0.11152654865E+03  0.11152654865E+03  0.00000000000E+00 0. -1.
       -3   -1    0    0    0  501 -0.00000000000E+00 -0.00000000000E+00 -0.49389916405E+02  0.49389916405E+02  0.00000000000E+00 0.  1.
       23    1    1    2    0    0  0.30042738865E+02  0.28309480687E+02  0.65304946597E+02  0.11951560672E+03  0.91188000000E+02 0. -1.
       -3    1    1    2    0  502 -0.30042738865E+02 -0.28309480687E+02 -0.31683143495E+01  0.41400858338E+02  0.00000000000E+00 0.  1.
<scales pt_clust_3="100000.00000" pt_clust_4="100000.00000"></scales>
<rwgt>
<wgt id='bias'>   0.1000000E+01</wgt>
</rwgt>
<clustering>
<clus scale="   41.279">  3  4 -1 -1</clus>
<clus scale="  148.436">  1  3  2 -1</clus>
</clustering>
</event>
<event>
 3   1  0.8512900E+003  0.9118800E+02  0.7546771E-02  0.1180022E+00
       -3   -1    0    0    0  501 -0.00000000000E+00  0.00000000000E+00  0.72521017370E+02  0.72521017370E+02  0.00000000000E+00 0.  1.
        3   -1    0    0  501    0  0.00000000000E+00 -0.00000000000E+00 -0.28664970672E+02  0.28664970672E+02  0.00000000000E+00 0. -1.
       23    1    1    2    0    0  0.00000000000E+00 -0.00000000000E+00  0.43856046698E+02  0.10118598804E+03  0.91188000000E+02 0.  1.
<scales pt_clust_3="100000.00000"></scales>
<rwgt>
<wgt id='bias'>   0.1000000E+01</wgt>
</rwgt>
<clustering>
<clus scale="   91.188">  2  3  1 -1</clus>
</clustering>
</event>
<event>
 3   1  0.8512900E+003  0.9118800E+02  0.7546771E-02  0.1180022E+00
        2   -1    0    0  501    0  0.00000000000E+00  0.00000000000E+00  0.27438161021E+01  0.27438161021E+01  0.00000000000E+00 0. -1.
       -2   -1    0    0    0  501 -0.00000000000E+00 -0.00000000000E+00 -0.75763562814E+03  0.75763562814E+03  0.00000000000E+00 0.  1.
       23    1    1    2    0    0  0.00000000000E+00  0.00000000000E+00 -0.75489181204E+03  0.76037944424E+03  0.91188000000E+02 0. -1.
<scales pt_clust_3="100000.00000"></scales>
<rwgt>
<wgt id='bias'>   0.1000000E+01</wgt>
</rwgt>
<clustering>
<clus scale="   91.188">  1  3  2 -1</clus>
</clustering>
</event>
<event>
 5   3  0.8512900E+003  0.2433692E+02  0.7546771E-02  0.1173930E+00
       21   -1    0    0  503  502  0.00000000000E+00  0.00000000000E+00  0.48754739627E+03  0.48754739627E+03  0.00000000000E+00 0. -1.
       21   -1    0    0  501  503 -0.00000000000E+00 -0.00000000000E+00 -0.23168198851E+02  0.23168198851E+02  0.00000000000E+00 0.  1.
       23    1    1    2    0    0 -0.39914489982E+01  0.20600134566E+02  0.79141833345E+02  0.12255194139E+03  0.91188000000E+02 0.  1.
        5    1    1    2  501    0  0.31491589169E+01 -0.33938327680E+02  0.28890498908E+03  0.29090861109E+03  0.00000000000E+00 0. -1.
       -5    1    1    2    0  502  0.84229008132E+00  0.13338193114E+02  0.96332374990E+02  0.97255042642E+02  0.00000000000E+00 0.  1.
<scales pt_clust_3="100000.00000" pt_clust_4="24.33692" pt_clust_5="13.36476"></scales>
<rwgt>
<wgt id='bias'>   0.1000000E+01</wgt>
</rwgt>
<clustering>
<clus scale="   13.365">  1  5  2 -1</clus>
<clus scale="   24.337">  2  4  1 -1</clus>
<clus scale="   13.365">  1  3  2 -1</clus>
</clustering>
</event>
<event>
 3   1  0.8512900E+003  0.9118800E+02  0.7546771E-02  0.1180022E+00
       -2   -1    0    0    0  501 -0.00000000000E+00  0.00000000000E+00  0.41780052917E+03  0.41780052917E+03  0.00000000000E+00 0.  1.
        2   -1    0    0  501    0  0.00000000000E+00 -0.00000000000E+00 -0.49756108259E+01  0.49756108259E+01  0.00000000000E+00 0. -1.
       23    1    1    2    0    0  0.00000000000E+00 -0.00000000000E+00  0.41282491834E+03  0.42277614000E+03  0.91188000000E+02 0.  1.
<scales pt_clust_3="100000.00000"></scales>
<rwgt>
<wgt id='bias'>   0.1000000E+01</wgt>
</rwgt>
<clustering>
<clus scale="   91.188">  2  3  1 -1</clus>
</clustering>
</event>
<event>
 3   1  0.8512900E+003  0.9118800E+02  0.7546771E-02  0.1180022E+00
       -1   -1    0    0    0  501 -0.00000000000E+00  0.00000000000E+00  0.13351172007E+03  0.13351172007E+03  0.00000000000E+00 0.  1.
        1   -1    0    0  501    0  0.00000000000E+00 -0.00000000000E+00 -0.15570264805E+02  0.15570264805E+02  0.00000000000E+00 0. -1.
       23    1    1    2    0    0  0.00000000000E+00 -0.00000000000E+00  0.11794145526E+03  0.14908198487E+03  0.91188000000E+02 0.  1.
<scales pt_clust_3="100000.00000"></scales>
<rwgt>
<wgt id='bias'>   0.1000000E+01</wgt>
</rwgt>
<clustering>
<clus scale="   91.188">  2  3  1 -1</clus>
</clustering>
</event>
<event>
 3   1  0.8512900E+003  0.9118800E+02  0.7546771E-02  0.1180022E+00
       -5   -1    0    0    0  501 -0.00000000000E+00  0.00000000000E+00  0.71107695137E+01  0.71107695137E+01  0.00000000000E+00 0. -1.
        5   -1    0    0  501    0  0.00000000000E+00 -0.00000000000E+00 -0.29234709858E+03  0.29234709858E+03  0.00000000000E+00 0.  1.
       23    1    1    2    0    0  0.00000000000E+00 -0.00000000000E+00 -0.28523632907E+03  0.29945786809E+03  0.91188000000E+02 0. -1.
<scales pt_clust_3="100000.00000"></scales>
<rwgt>
<wgt id='bias'>   0.1000000E+01</wgt>
</rwgt>
<clustering>
<clus scale="   91.188">  2  3  1 -1</clus>
</clustering>
</event>
<event>
 3   1  0.8512900E+003  0.9118800E+02  0.7546771E-02  0.1180022E+00
        1   -1    0    0  501    0  0.00000000000E+00  0.00000000000E+00  0.83660650971E+03  0.83660650971E+03  0.00000000000E+00 0. -1.
       -1   -1    0    0    0  501 -0.00000000000E+00 -0.00000000000E+00 -0.24848155159E+01  0.24848155159E+01  0.00000000000E+00 0.  1.
       23    1    1    2    0    0  0.00000000000E+00  0.00000000000E+00  0.83412169419E+03  0.83909132522E+03  0.91188000000E+02 0. -1.
<scales pt_clust_3="100000.00000"></scales>
<rwgt>
<wgt id='bias'>   0.1000000E+01</wgt>
</rwgt>
<clustering>
<clus scale="   91.188">  1  3  2 -1</clus>
</clustering>
</event>
<event>
 5   3  0.8512900E+003  0.1289046E+03  0.7546771E-02  0.1121533E+00
        4   -1    0    0  503    0 -0.00000000000E+00  0.00000000000E+00  0.26229318474E+02  0.26229318474E+02  0.00000000000E+00 0.  1.
       21   -1    0    0  501  502  0.00000000000E+00 -0.00000000000E+00 -0.10448704503E+04  0.10448704503E+04  0.00000000000E+00 0.  1.
       23    1    1    2    0    0 -0.22312703415E+02 -0.39629795864E+01 -0.76173822237E+02  0.12095976388E+03  0.91188000000E+02 0.  1.
       21    1    1    2  503  502  0.10194666262E+02 -0.23303823482E+02 -0.88520084229E+03  0.88556622033E+03  0.00000000000E+00 0.  1.
        4    1    1    2  501    0  0.12118037153E+02  0.27266803069E+02 -0.57266467270E+02  0.64573784523E+02  0.00000000000E+00 0.  1.
<scales pt_clust_3="100000.00000" pt_clust_4="25.43618" pt_clust_5="100000.00000"></scales>
<rwgt>
<wgt id='bias'>   0.1000000E+01</wgt>
</rwgt>
<clustering>
<clus scale="   25.436">  2  4  1 -1</clus>
<clus scale="   24.365">  3  5 -1 -1</clus>
<clus scale="   25.436">  2  3  1 -1</clus>
</clustering>
</event>
<event>
 5   3  0.8512900E+003  0.1367578E+03  0.7546771E-02  0.1112129E+00
       21   -1    0    0  503  502  0.00000000000E+00  0.00000000000E+00  0.80985960711E+03  0.80985960711E+03  0.00000000000E+00 0. -1.
       -2   -1    0    0    0  501 -0.00000000000E+00 -0.00000000000E+00 -0.14944590768E+02  0.14944590768E+02  0.00000000000E+00 0. -1.
       23    1    1    2    0    0 -0.87052859069E+01 -0.83062390325E+01  0.12983003600E+03  0.15910960123E+03  0.91188000000E+02 0. -1.
       21    1    1    2  503  501  0.16709834893E+02  0.10918719575E+02  0.49249982254E+03  0.49290416129E+03  0.00000000000E+00 0. -1.
       -2    1    1    2    0  502 -0.80045489859E+01 -0.26124805425E+01  0.17258515780E+03  0.17279043536E+03  0.00000000000E+00 0. -1.
<scales pt_clust_3="100000.00000" pt_clust_4="19.96089" pt_clust_5="100000.00000"></scales>
<rwgt>
<wgt id='bias'>   0.1000000E+01</wgt>
</rwgt>
<clustering>
<clus scale="    8.420">  3  5 -1 -1</clus>
<clus scale="   19.961">  1  4  2 -1</clus>
<clus scale="   19.961">  1  3  2 -1</clus>
</clustering>
</event>
<event>
 5   3  0.8512900E+003  0.1534839E+03  0.7546771E-02  0.1094235E+00
       21   -1    0    0  503  502  0.00000000000E+00  0.00000000000E+00  0.11187019353E+02  0.11187019353E+02  0.00000000000E+00 0. -1.
        4   -1    0    0  502    0 -0.00000000000E+00 -0.00000000000E+00 -0.31847553681E+04  0.31847553681E+04  0.00000000000E+00 0. -1.
       23    1    1    2    0    0 -0.79412415342E+02  0.94528967611E+02 -0.26588799393E+04  0.26633061860E+04  0.91188000000E+02 0. -1.
       21    1    1    2  503  501  0.43425445537E+02 -0.19927342621E+02 -0.11636441308E+03  0.12579167276E+03  0.00000000000E+00 0. -1.
        4    1    1    2  501    0  0.35986969805E+02 -0.74601624990E+02 -0.39832399633E+03  0.40684452866E+03  0.00000000000E+00 0. -1.
<scales pt_clust_3="100000.00000" pt_clust_4="45.28540" pt_clust_5="137.10275"></scales>
<rwgt>
<wgt id='bias'>   0.1000000E+01</wgt>
</rwgt>
<clustering>
<clus scale="   45.285">  4  5 -1 -1</clus>
<clus scale="  137.103">  1  4  2 -1</clus>
<clus scale="  137.103">  1  3  2 -1</clus>
</clustering>
</event>
<event>
 4   2  0.8512900E+003  0.9414143E+02  0.7546771E-02  0.1174375E+00
        1   -1    0    0  502    0 -0.00000000000E+00  0.00000000000E+00  0.32267545864E+02  0.32267545864E+02  0.00000000000E+00 0. -1.
       21   -1    0    0  501  502  0.00000000000E+00 -0.00000000000E+00 -0.11202944911E+03  0.11202944911E+03  0.00000000000E+00 0.  1.
       23    1    1    2    0    0 -0.22878151078E+02 -0.48935684464E+01 -0.75133960659E+02  0.12044799790E+03  0.91188000000E+02 0.  0.
        1    1    1    2  501    0  0.22878151078E+02  0.48935684464E+01 -0.46279425821E+01  0.23848997074E+02  0.00000000000E+00 0. -1.
<scales pt_clust_3="100000.00000" pt_clust_4="23.39567"></scales>
<rwgt>
<wgt id='bias'>   0.1000000E+01</wgt>
</rwgt>
<clustering>
<clus scale="   23.396">  2  4  1 -1</clus>
<clus scale="   23.396">  2  3  1 -1</clus>
</clustering>
</event>
<event>
 3   1  0.8512900E+003  0.9118800E+02  0.7546771E-02  0.1180022E+00
       -2   -1    0    0    0  501 -0.00000000000E+00  0.00000000000E+00  0.86843187827E+00  0.86843187827E+00  0.00000000000E+00 0.  1.
        2   -1    0    0  501    0  0.00000000000E+00 -0.00000000000E+00 -0.23937546376E+04  0.23937546376E+04  0.00000000000E+00 0. -1.
       23    1    1    2    0    0  0.00000000000E+00 -0.00000000000E+00 -0.23928862057E+04  0.23946230694E+04  0.91188000000E+02 0.  1.
<scales pt_clust_3="100000.00000"></scales>
<rwgt>
<wgt id='bias'>   0.1000000E+01</wgt>
</rwgt>
<clustering>
<clus scale="   91.188">  2  3  1 -1</clus>
</clustering>
</event>
<event>
 4   2  0.8512900E+003  0.1821698E+03  0.7546771E-02  0.1068708E+00
        3   -1    0    0  502    0 -0.00000000000E+00  0.00000000000E+00  0.94144690817E+01  0.94144690817E+01  0.00000000000E+00 0. -1.
       21   -1    0    0  501  502  0.00000000000E+00 -0.00000000000E+00 -0.88124564333E+03  0.88124564333E+03  0.00000000000E+00 0. -1.
       23    1    1    2    0    0  0.70675584674E+01 -0.20222033629E+02 -0.86202752622E+03  0.86710183273E+03  0.91188000000E+02 0. -1.
        3    1    1    2  501    0 -0.70675584674E+01  0.20222033629E+02 -0.98036480315E+01  0.23558279680E+02  0.00000000000E+00 0. -1.
<scales pt_clust_3="100000.00000" pt_clust_4="100000.00000"></scales>
<rwgt>
<wgt id='bias'>   0.1000000E+01</wgt>
</rwgt>
<clustering>
<clus scale="   21.422">  3  4 -1 -1</clus>
<clus scale="  182.170">  2  3  1 -1</clus>
</clustering>
</event>
<event>
 3   1  0.8512900E+003  0.9118800E+02  0.7546771E-02  0.1180022E+00
       -3   -1    0    0    0  501 -0.00000000000E+00  0.00000000000E+00  0.46053214001E+01  0.46053214001E+01  0.00000000000E+00 0.  1.
        3   -1    0    0  501    0  0.00000000000E+00 -0.00000000000E+00 -0.45139364995E+03  0.45139364995E+03  0.00000000000E+00 0. -1.
       23    1    1    2    0    0  0.00000000000E+00 -0.00000000000E+00 -0.44678832855E+03  0.45599897135E+03  0.91188000000E+02 0.  1.
<scales pt_clust_3="100000.00000"></scales>
<rwgt>
<wgt id='bias'>   0.1000000E+01</wgt>
</rwgt>
<clustering>
<clus scale="   91.188">  2  3  1 -1</clus>
</clustering>
</event>
<event>
 4   2  0.8512900E+003  0.1015635E+03  0.7546771E-02  0.1161158E+00
       21   -1    0    0  501  502  0.00000000000E+00  0.00000000000E+00  0.41145224963E+00  0.41145224963E+00  0.00000000000E+00 0.  1.
        1   -1    0    0  502    0 -0.00000000000E+00 -0.00000000000E+00 -0.13723641635E+05  0.13723641635E+05  0.00000000000E+00 0. -1.
       23    1    1    2    0    0 -0.12918950677E+02 -0.42813381976E+02 -0.79311209372E+04  0.79317712055E+04  0.91188000000E+02 0.  1.
        1    1    1    2  501    0  0.12918950677E+02  0.42813381976E+02 -0.57921092452E+04  0.57922818814E+04  0.00000000000E+00 0. -1.
<scales pt_clust_3="100000.00000" pt_clust_4="44.72010"></scales>
<rwgt>
<wgt id='bias'>   0.1000000E+01</wgt>
</rwgt>
<clustering>
<clus scale="   44.720">  1  4  2 -1</clus>
<clus scale="   44.720">  1  3  2 -1</clus>
</clustering>
</event>
<event>
 5   3  0.8512900E+003  0.1236493E+03  0.7546771E-02  0.1094082E+00
       -1   -1    0    0    0  501 -0.00000000000E+00  0.00000000000E+00  0.37594856366E+01  0.37594856366E+01  0.00000000000E+00 0.  1.
        1   -1    0    0  503    0  0.00000000000E+00 -0.00000000000E+00 -0.84267111179E+04  0.84267111179E+04  0.00000000000E+00 0. -1.
       23    1    1    2    0    0  0.41301461379E+02  0.10528161087E+03 -0.44034087793E+04  0.44058045982E+04  0.91188000000E+02 0.  1.
       21    1    1    2  502  501 -0.47158782245E+02 -0.11843977489E+03 -0.15969529291E+04  0.16020332671E+04  0.00000000000E+00 0. -1.
       21    1    1    2  503  502  0.58573208666E+01  0.13158164019E+02 -0.24225899239E+04  0.24226327384E+04  0.00000000000E+00 0.  1.
<scales pt_clust_3="100000.00000" pt_clust_4="123.64926" pt_clust_5="14.40297"></scales>
<rwgt>
<wgt id='bias'>   0.1000000E+01</wgt>
</rwgt>
<clustering>
<clus scale="   14.403">  2  5  1 -1</clus>
<clus scale="  123.649">  1  4  2 -1</clus>
<clus scale="   14.403">  2  3  1 -1</clus>
</clustering>
</event>
<event>
 3   1  0.8512900E+003  0.9118800E+02  0.7546771E-02  0.1180022E+00
       -1   -1    0    0    0  501 -0.00000000000E+00  0.00000000000E+00  0.31594650001E+04  0.31594650001E+04  0.00000000000E+00 0.  1.
        1   -1    0    0  501    0  0.00000000000E+00 -0.00000000000E+00 -0.65796355899E+00  0.65796355899E+00  0.00000000000E+00 0. -1.
       23    1    1    2    0    0  0.00000000000E+00 -0.00000000000E+00  0.31588070366E+04  0.31601229637E+04  0.91188000000E+02 0.  1.
<scales pt_clust_3="100000.00000"></scales>
<rwgt>
<wgt id='bias'>   0.1000000E+01</wgt>
</rwgt>
<clustering>
<clus scale="   91.188">  2  3  1 -1</clus>
</clustering>
</event>
<event>
 4   2  0.8512900E+003  0.9209886E+02  0.7546771E-02  0.1178255E+00
        1   -1    0    0  502    0 -0.00000000000E+00  0.00000000000E+00  0.58515435299E+01  0.58515435299E+01  0.00000000000E+00 0. -1.
       21   -1    0    0  501  502  0.00000000000E+00 -0.00000000000E+00 -0.48421263077E+03  0.48421263077E+03  0.00000000000E+00 0.  1.
       23    1    1    2    0    0 -0.92881727222E+01 -0.89821091206E+01 -0.44150825787E+03  0.45101190844E+03  0.91188000000E+02 0.  1.
        1    1    1    2  501    0  0.92881727222E+01  0.89821091206E+01 -0.36852829369E+02  0.39052265866E+02  0.00000000000E+00 0. -1.
<scales pt_clust_3="100000.00000" pt_clust_4="12.92086"></scales>
<rwgt>
<wgt id='bias'>   0.1000000E+01</wgt>
</rwgt>
<clustering>
<clus scale="   12.921">  2  4  1 -1</clus>
<clus scale="   12.921">  2  3  1 -1</clus>
</clustering>
</event>
<event>
 3   1  0.8512900E+003  0.9118800E+02  0.7546771E-02  0.1180022E+00
       -3   -1    0    0    0  501 -0.00000000000E+00  0.00000000000E+00  0.83267423368E+01  0.83267423368E+01  0.00000000000E+00 0.  1.
        3   -1    0    0  501    0  0.00000000000E+00 -0.00000000000E+00 -0.24965499735E+03  0.24965499735E+03  0.00000000000E+00 0. -1.
       23    1    1    2    0    0  0.00000000000E+00 -0.00000000000E+00 -0.24132825501E+03  0.25798173968E+03  0.91188000000E+02 0.  1.
<scales pt_clust_3="100000.00000"></scales>
<rwgt>
<wgt id='bias'>   0.1000000E+01</wgt>
</rwgt>
<clustering>
<clus scale="   91.188">  2  3  1 -1</clus>
</clustering>
</event>
<event>
 4   2  0.8512900E+003  0.9216086E+02  0.7546771E-02  0.1178136E+00
       21   -1    0    0  501  502  0.00000000000E+00  0.00000000000E+00  0.21620179453E+02  0.21620179453E+02  0.00000000000E+00 0. -1.
       -1   -1    0    0    0  501 -0.00000000000E+00 -0.00000000000E+00 -0.13161036344E+03  0.13161036344E+03  0.00000000000E+00 0.  1.
       23    1    1    2    0    0 -0.12811470838E+02 -0.37734127838E+01 -0.10279698888E+03  0.13806101802E+03  0.91188000000E+02 0.  1.
       -1    1    1    2    0  502  0.12811470838E+02  0.37734127838E+01 -0.71931951026E+01  0.15169524873E+02  0.00000000000E+00 0.  1.
<scales pt_clust_3="100000.00000" pt_clust_4="13.35561"></scales>
<rwgt>
<wgt id='bias'>   0.1000000E+01</wgt>
</rwgt>
<clustering>
<clus scale="   13.356">  1  4  2 -1</clus>
<clus scale="   13.356">  1  3  2 -1</clus>
</clustering>
</event>
<event>
 3   1  0.8512900E+003  0.9118800E+02  0.7546771E-02  0.1180022E+00
       -1   -1    0    0    0  501 -0.00000000000E+00  0.00000000000E+00  0.33429482512E+04  0.33429482512E+04  0.00000000000E+00 0.  1.
        1   -1    0    0  501    0  0.00000000000E+00 -0.00000000000E+00 -0.62185013939E+00  0.62185013939E+00  0.00000000000E+00 0. -1.
       23    1    1    2    0    0  0.00000000000E+00 -0.00000000000E+00  0.33423264011E+04  0.33435701013E+04  0.91188000000E+02 0.  1.
<scales pt_clust_3="100000.00000"></scales>
<rwgt>
<wgt id='bias'>   0.1000000E+01</wgt>
</rwgt>
<clustering>
<clus scale="   91.188">  2  3  1 -1</clus>
</clustering>
</event>
<event>
 3   1  0.8512900E+003  0.9118800E+02  0.7546771E-02  0.1180022E+00
       -1   -1    0    0    0  501 -0.00000000000E+00  0.00000000000E+00  0.25881294786E+01  0.25881294786E+01  0.00000000000E+00 0.  1.
        1   -1    0    0  501    0  0.00000000000E+00 -0.00000000000E+00 -0.80321052450E+03  0.80321052450E+03  0.00000000000E+00 0. -1.
       23    1    1    2    0    0  0.00000000000E+00 -0.00000000000E+00 -0.80062239502E+03  0.80579865398E+03  0.91188000000E+02 0.  1.
<scales pt_clust_3="100000.00000"></scales>
<rwgt>
<wgt id='bias'>   0.1000000E+01</wgt>
</rwgt>
<clustering>
<clus scale="   91.188">  2  3  1 -1</clus>
</clustering>
</event>
<event>
 4   2  0.8512900E+003  0.9182940E+02  0.7546771E-02  0.1178776E+00
       21   -1    0    0  501  502  0.00000000000E+00  0.00000000000E+00  0.75487514029E+00  0.75487514029E+00  0.00000000000E+00 0. -1.
        2   -1    0    0  502    0 -0.00000000000E+00 -0.00000000000E+00 -0.52734417638E+04  0.52734417638E+04  0.00000000000E+00 0. -1.
       23    1    1    2    0    0  0.45994438764E+01 -0.98097746348E+01 -0.51888562952E+04  0.51896688035E+04  0.91188000000E+02 0. -1.
        2    1    1    2  501    0 -0.45994438764E+01  0.98097746348E+01 -0.83830593408E+02  0.84527835377E+02  0.00000000000E+00 0. -1.
<scales pt_clust_3="100000.00000" pt_clust_4="10.83451"></scales>
<rwgt>
<wgt id='bias'>   0.1000000E+01</wgt>
</rwgt>
<clustering>
<clus scale="   10.835">  1  4  2 -1</clus>
<clus scale="   10.835">  1  3  2 -1</clus>
</clustering>
</event>
<event>
 4   2  0.8512900E+003  0.9298327E+02  0.7546771E-02  0.1176561E+00
       21   -1    0    0  501  502  0.00000000000E+00  0.00000000000E+00  0.55136084073E+03  0.55136084073E+03  0.00000000000E+00 0. -1.
       -2   -1    0    0    0  501 -0.00000000000E+00 -0.00000000000E+00 -0.63003545049E+01  0.63003545049E+01  0.00000000000E+00 0.  1.
       23    1    1    2    0    0  0.15327600041E+02 -0.97827245213E+01  0.50729512925E+03  0.51574629085E+03  0.91188000000E+02 0. -1.
       -2    1    1    2    0  502 -0.15327600041E+02  0.97827245213E+01  0.37765356978E+02  0.41914904387E+02  0.00000000000E+00 0.  1.
<scales pt_clust_3="100000.00000" pt_clust_4="18.18344"></scales>
<rwgt>
<wgt id='bias'>   0.1000000E+01</wgt>
</rwgt>
<clustering>
<clus scale="   18.183">  1  4  2 -1</clus>
<clus scale="   18.183">  1  3  2 -1</clus>
</clustering>
</event>
<event>
 4   2  0.8512900E+003  0.1037084E+03  0.7546771E-02  0.1157571E+00
        1   -1    0    0  502    0 -0.00000000000E+00  0.00000000000E+00  0.22750951148E+05  0.22750951148E+05  0.00000000000E+00 0. -1.
       21   -1    0    0  501  502  0.00000000000E+00 -0.00000000000E+00 -0.35176297515E+00  0.35176297515E+00  0.00000000000E+00 0. -1.
       23    1    1    2    0    0  0.47646265035E+01  0.49167933200E+02  0.19938308252E+05  0.19938577968E+05  0.91188000000E+02 0. -1.
        1    1    1    2  501    0 -0.47646265035E+01 -0.49167933200E+02  0.28122911332E+04  0.28127249430E+04  0.00000000000E+00 0. -1.
<scales pt_clust_3="100000.00000" pt_clust_4="49.39825"></scales>
<rwgt>
<wgt id='bias'>   0.1000000E+01</wgt>
</rwgt>
<clustering>
<clus scale="   49.398">  2  4  1 -1</clus>
<clus scale="   49.398">  2  3  1 -1</clus>
</clustering>
</event>
<event>
 4   2  0.8512900E+003  0.2259156E+03  0.7546771E-02  0.1038317E+00
       21   -1    0    0  501  502  0.00000000000E+00  0.00000000000E+00  0.15009593075E+02  0.15009593075E+02  0.00000000000E+00 0. -1.
        5   -1    0    0  502    0 -0.00000000000E+00 -0.00000000000E+00 -0.85008716864E+03  0.85008716864E+03  0.00000000000E+00 0. -1.
       23    1    1    2    0    0 -0.59860310077E+02  0.55769797067E+02 -0.30404754612E+03  0.32780129443E+03  0.91188000000E+02 0. -1.
        5    1    1    2  501    0  0.59860310077E+02 -0.55769797067E+02 -0.53103002945E+03  0.53729546728E+03  0.00000000000E+00 0. -1.
<scales pt_clust_3="100000.00000" pt_clust_4="100000.00000"></scales>
<rwgt>
<wgt id='bias'>   0.1000000E+01</wgt>
</rwgt>
<clustering>
<clus scale="   81.814">  3  4 -1 -1</clus>
<clus scale="  225.916">  1  3  2 -1</clus>
</clustering>
</event>
<event>
 5   3  0.8512900E+003  0.4816209E+02  0.7546771E-02  0.1158537E+00
       -2   -1    0    0    0  501 -0.00000000000E+00  0.00000000000E+00  0.10488004224E+02  0.10488004224E+02  0.00000000000E+00 0.  1.
        2   -1    0    0  503    0  0.00000000000E+00 -0.00000000000E+00 -0.19941291523E+04  0.19941291523E+04  0.00000000000E+00 0. -1.
       23    1    1    2    0    0  0.43270925910E+02 -0.38702426146E+02 -0.68237371463E+03  0.69088304986E+03  0.91188000000E+02 0.  1.
       21    1    1    2  502  501 -0.17175049631E+02 -0.78250767423E+00 -0.69385469809E+01  0.18540174818E+02  0.00000000000E+00 0.  1.
       21    1    1    2  503  502 -0.26095876279E+02  0.39484933820E+02 -0.12943288864E+04  0.12951939318E+04  0.00000000000E+00 0. -1.
<scales pt_clust_3="100000.00000" pt_clust_4="17.19287" pt_clust_5="48.16209"></scales>
<rwgt>
<wgt id='bias'>   0.1000000E+01</wgt>
</rwgt>
<clustering>
<clus scale="   17.193">  1  4  2 -1</clus>
<clus scale="   48.162">  2  5  1 -1</clus>
<clus scale="   48.162">  2  3  1 -1</clus>
</clustering>
</event>
<event>
 5   3  0.8512900E+003  0.4341787E+03  0.7546771E-02  0.9559704E-01
        1   -1    0    0  503    0 -0.00000000000E+00  0.00000000000E+00  0.18406700606E+05  0.18406700606E+05  0.00000000000E+00 0. -1.
       21   -1    0    0  501  502  0.00000000000E+00 -0.00000000000E+00 -0.94549801042E+01  0.94549801042E+01  0.00000000000E+00 0.  1.
       23    1    1    2    0    0  0.55965402256E+02 -0.81020024689E+02  0.68406579367E+04  0.68419743225E+04  0.91188000000E+02 0. -1.
       21    1    1    2  503  502  0.11577348117E+03  0.30152900941E+03  0.42527437918E+04  0.42649915594E+04  0.00000000000E+00 0.  1.
        1    1    1    2  501    0 -0.17173888343E+03 -0.22050898472E+03  0.73038438974E+04  0.73091897043E+04  0.00000000000E+00 0. -1.
<scales pt_clust_3="100000.00000" pt_clust_4="322.99125" pt_clust_5="100000.00000"></scales>
<rwgt>
<wgt id='bias'>   0.1000000E+01</wgt>
</rwgt>
<clustering>
<clus scale="  279.497">  3  5 -1 -1</clus>
<clus scale="  322.991">  1  4  2 -1</clus>
<clus scale="  434.179">  2  3  1 -1</clus>
</clustering>
</event>
<event>
 3   1  0.8512900E+003  0.9118800E+02  0.7546771E-02  0.1180022E+00
       -3   -1    0    0    0  501 -0.00000000000E+00  0.00000000000E+00  0.42486909034E+03  0.42486909034E+03  0.00000000000E+00 0.  1.
        3   -1    0    0  501    0  0.00000000000E+00 -0.00000000000E+00 -0.48928314233E+01  0.48928314233E+01  0.00000000000E+00 0. -1.
       23    1    1    2    0    0  0.00000000000E+00 -0.00000000000E+00  0.41997625892E+03  0.42976192176E+03  0.91188000000E+02 0.  1.
<scales pt_clust_3="100000.00000"></scales>
<rwgt>
<wgt id='bias'>   0.1000000E+01</wgt>
</rwgt>
<clustering>
<clus scale="   91.188">  2  3  1 -1</clus>
</clustering>
</event>
<event>
 4   2  0.8512900E+003  0.9175486E+02  0.7546771E-02  0.1178920E+00
       -2   -1    0    0    0  501 -0.00000000000E+00  0.00000000000E+00  0.63955682207E+00  0.63955682207E+00  0.00000000000E+00 0.  1.
        2   -1    0    0  502    0  0.00000000000E+00 -0.00000000000E+00 -0.40655564204E+04  0.40655564204E+04  0.00000000000E+00 0. -1.
       23    1    1    2    0    0  0.23930042337E+01 -0.98983390668E+01 -0.36211309925E+04  0.36222932819E+04  0.91188000000E+02 0. -1.
       21    1    1    2  502  501 -0.23930042337E+01  0.98983390668E+01 -0.44378587103E+03  0.44390269532E+03  0.00000000000E+00 0. -1.
<scales pt_clust_3="100000.00000" pt_clust_4="10.18350"></scales>
<rwgt>
<wgt id='bias'>   0.1000000E+01</wgt>
</rwgt>
<clustering>
<clus scale="   10.183">  2  4  1 -1</clus>
<clus scale="   10.183">  2  3  1 -1</clus>
</clustering>
</event>
<event>
 4   2  0.8512900E+003  0.9514080E+02  0.7546771E-02  0.1172517E+00
        1   -1    0    0  502    0 -0.00000000000E+00  0.00000000000E+00  0.33737925912E+04  0.33737925912E+04  0.00000000000E+00 0. -1.
       21   -1    0    0  501  502  0.00000000000E+00 -0.00000000000E+00 -0.11746730927E+01  0.11746730927E+01  0.00000000000E+00 0. -1.
       23    1    1    2    0    0  0.24860207876E+02  0.10885314446E+02  0.29092565719E+04  0.29108118408E+04  0.91188000000E+02 0. -1.
        1    1    1    2  501    0 -0.24860207876E+02 -0.10885314446E+02  0.46336134620E+03  0.46415542349E+03  0.00000000000E+00 0. -1.
<scales pt_clust_3="100000.00000" pt_clust_4="27.13890"></scales>
<rwgt>
<wgt id='bias'>   0.1000000E+01</wgt>
</rwgt>
<clustering>
<clus scale="   27.139">  2  4  1 -1</clus>
<clus scale="   27.139">  2  3  1 -1</clus>
</clustering>
</event>
<event>
 5   3  0.8512900E+003  0.3208939E+03  0.7546771E-02  0.9923646E-01
        1   -1    0    0  501    0  0.00000000000E+00  0.00000000000E+00  0.20366877494E+01  0.20366877494E+01  0.00000000000E+00 0. -1.
       -2   -1    0    0    0  501 -0.00000000000E+00 -0.00000000000E+00 -0.18515649722E+05  0.18515649722E+05  0.00000000000E+00 0. -1.
       23    1    1    2    0    0  0.32465285562E+01  0.10612900239E+02 -0.12660386494E+05  0.12660719750E+05  0.91188000000E+02 0. -1.
        1    1    1    2  502    0 -0.23129031271E+02 -0.30395144227E+02 -0.19688207300E+03  0.20055265530E+03  0.00000000000E+00 0. -1.
       -2    1    1    2    0  502  0.19882502714E+02  0.19782243988E+02 -0.56563444675E+04  0.56564140041E+04  0.00000000000E+00 0. -1.
<scales pt_clust_3="100000.00000" pt_clust_4="100000.00000" pt_clust_5="28.04730"></scales>
<rwgt>
<wgt id='bias'>   0.1000000E+01</wgt>
</rwgt>
<clustering>
<clus scale="   28.047">  2  5  1 -1</clus>
<clus scale="   37.765">  3  4 -1 -1</clus>
<clus scale="  320.894">  1  3  2 -1</clus>
</clustering>
</event>
<event>
 4   2  0.8512900E+003  0.9311569E+02  0.7546771E-02  0.1176310E+00
        5   -1    0    0  502    0 -0.00000000000E+00  0.00000000000E+00  0.58840516578E+01  0.58840516578E+01  0.00000000000E+00 0. -1.
       21   -1    0    0  501  502  0.00000000000E+00 -0.00000000000E+00 -0.26886429682E+04  0.26886429682E+04  0.00000000000E+00 0. -1.
       23    1    1    2    0    0 -0.16362183242E+02 -0.93572737531E+01 -0.36496034189E+03  0.37665180487E+03  0.91188000000E+02 0. -1.
        5    1    1    2  501    0  0.16362183242E+02  0.93572737531E+01 -0.23177985747E+04  0.23178752150E+04  0.00000000000E+00 0. -1.
<scales pt_clust_3="100000.00000" pt_clust_4="18.84886"></scales>
<rwgt>
<wgt id='bias'>   0.1000000E+01</wgt>
</rwgt>
<clustering>
<clus scale="   18.849">  2  4  1 -1</clus>
<clus scale="   18.849">  2  3  1 -1</clus>
</clustering>
</event>
<event>
 3   1  0.8512900E+003  0.9118800E+02  0.7546771E-02  0.1180022E+00
       -2   -1    0    0    0  501 -0.00000000000E+00  0.00000000000E+00  0.10164998123E+01  0.10164998123E+01  0.00000000000E+00 0.  1.
        2   -1    0    0  501    0  0.00000000000E+00 -0.00000000000E+00 -0.20450695719E+04  0.20450695719E+04  0.00000000000E+00 0. -1.
       23    1    1    2    0    0  0.00000000000E+00 -0.00000000000E+00 -0.20440530721E+04  0.20460860717E+04  0.91188000000E+02 0.  1.
<scales pt_clust_3="100000.00000"></scales>
<rwgt>
<wgt id='bias'>   0.1000000E+01</wgt>
</rwgt>
<clustering>
<clus scale="   91.188">  2  3  1 -1</clus>
</clustering>
</event>
<event>
 5   3  0.8512900E+003  0.9293148E+02  0.7546771E-02  0.1176660E+00
       21   -1    0    0  503  502  0.00000000000E+00  0.00000000000E+00  0.78621864414E+04  0.78621864414E+04  0.00000000000E+00 0.  1.
       -4   -1    0    0    0  501 -0.00000000000E+00 -0.00000000000E+00 -0.19410417220E+01  0.19410417220E+01  0.00000000000E+00 0.  1.
       23    1    1    2    0    0  0.14299176973E+02  0.12405110343E+02  0.11389316947E+04  0.11427331315E+04  0.91188000000E+02 0.  1.
       21    1    1    2  503  501 -0.18698447163E+02  0.10914072938E+01  0.38333012331E+04  0.38333469927E+04  0.00000000000E+00 0.  1.
       -4    1    1    2    0  502  0.43992701895E+01 -0.13496517637E+02  0.28880124718E+04  0.28880473589E+04  0.00000000000E+00 0.  1.
<scales pt_clust_3="100000.00000" pt_clust_4="17.91674" pt_clust_5="14.19541"></scales>
<rwgt>
<wgt id='bias'>   0.1000000E+01</wgt>
</rwgt>
<clustering>
<clus scale="   14.195">  1  5  2 -1</clus>
<clus scale="   17.917">  1  4  2 -1</clus>
<clus scale="   14.195">  1  3  2 -1</clus>
</clustering>
</event>
<event>
 5   3  0.8512900E+003  0.2492649E+03  0.7546771E-02  0.1025009E+00
       21   -1    0    0  503  502  0.00000000000E+00  0.00000000000E+00  0.18173308457E+02  0.18173308457E+02  0.00000000000E+00 0. -1.
       -2   -1    0    0    0  501 -0.00000000000E+00 -0.00000000000E+00 -0.11822585132E+05  0.11822585132E+05  0.00000000000E+00 0.  1.
       23    1    1    2    0    0 -0.12378170243E+03  0.15177185590E+02 -0.74939582686E+04  0.74955505495E+04  0.91188000000E+02 0.  1.
       21    1    1    2  503  501  0.38804165634E+02  0.26490045462E+02 -0.15884953222E+02  0.49596547440E+02  0.00000000000E+00 0. -1.
       -2    1    1    2    0  502  0.84977536796E+02 -0.41667231051E+02 -0.42945686013E+04  0.42956113432E+04  0.00000000000E+00 0.  1.
<scales pt_clust_3="100000.00000" pt_clust_4="46.98389" pt_clust_5="100000.00000"></scales>
<rwgt>
<wgt id='bias'>   0.1000000E+01</wgt>
</rwgt>
<clustering>
<clus scale="   46.984">  1  4  2 -1</clus>
<clus scale="  105.068">  3  5 -1 -1</clus>
<clus scale="   46.984">  1  3  2 -1</clus>
</clustering>
</event>
<event>
 4   2  0.8512900E+003  0.1021312E+03  0.7546771E-02  0.1160199E+00
       21   -1    0    0  501  502  0.00000000000E+00  0.00000000000E+00  0.20625066359E+02  0.20625066359E+02  0.00000000000E+00 0.  1.
       -1   -1    0    0    0  501 -0.00000000000E+00 -0.00000000000E+00 -0.31132329682E+03  0.31132329682E+03  0.00000000000E+00 0.  1.
       23    1    1    2    0    0  0.40968983055E+02 -0.20906482481E+02 -0.25175094399E+03  0.27167872152E+03  0.91188000000E+02 0.  1.
       -1    1    1    2    0  502 -0.40968983055E+02  0.20906482481E+02 -0.38947286471E+02  0.60269641659E+02  0.00000000000E+00 0.  1.
<scales pt_clust_3="100000.00000" pt_clust_4="45.99498"></scales>
<rwgt>
<wgt id='bias'>   0.1000000E+01</wgt>
</rwgt>
<clustering>
<clus scale="   45.995">  1  4  2 -1</clus>
<clus scale="   45.995">  1  3  2 -1</clus>
</clustering>
</event>
<event>
 3   1  0.8512900E+003  0.9118800E+02  0.7546771E-02  0.1180022E+00
        4   -1    0    0  501    0  0.00000000000E+00  0.00000000000E+00  0.68574915861E+03  0.68574915861E+03  0.00000000000E+00 0. -1.
       -4   -1    0    0    0  501 -0.00000000000E+00 -0.00000000000E+00 -0.30314478842E+01  0.30314478842E+01  0.00000000000E+00 0.  1.
       23    1    1    2    0    0  0.00000000000E+00  0.00000000000E+00  0.68271771073E+03  0.68878060650E+03  0.91188000000E+02 0. -1.
<scales pt_clust_3="100000.00000"></scales>
<rwgt>
<wgt id='bias'>   0.1000000E+01</wgt>
</rwgt>
<clustering>
<clus scale="   91.188">  1  3  2 -1</clus>
</clustering>
</event>
<event>
 3   1  0.8512900E+003  0.9118800E+02  0.7546771E-02  0.1180022E+00
       -4   -1    0    0    0  501 -0.00000000000E+00  0.00000000000E+00  0.79164361361E+01  0.79164361361E+01  0.00000000000E+00 0.  1.
        4   -1    0    0  501    0  0.00000000000E+00 -0.00000000000E+00 -0.26259453121E+03  0.26259453121E+03  0.00000000000E+00 0. -1.
       23    1    1    2    0    0  0.00000000000E+00 -0.00000000000E+00 -0.25467809507E+03  0.27051096734E+03  0.91188000000E+02 0.  1.
<scales pt_clust_3="100000.00000"></scales>
<rwgt>
<wgt id='bias'>   0.1000000E+01</wgt>
</rwgt>
<clustering>
<clus scale="   91.188">  2  3  1 -1</clus>
</clustering>
</event>
<event>
 3   1  0.8512900E+003  0.9118800E+02  0.7546771E-02  0.1180022E+00
       -2   -1    0    0    0  501 -0.00000000000E+00  0.00000000000E+00  0.56504240878E+00  0.56504240878E+00  0.00000000000E+00 0.  1.
        2   -1    0    0  501    0  0.00000000000E+00 -0.00000000000E+00 -0.36790386061E+04  0.36790386061E+04  0.00000000000E+00 0. -1.
       23    1    1    2    0    0  0.00000000000E+00 -0.00000000000E+00 -0.36784735637E+04  0.36796036485E+04  0.91188000000E+02 0.  1.
<scales pt_clust_3="100000.00000"></scales>
<rwgt>
<wgt id='bias'>   0.1000000E+01</wgt>
</rwgt>
<clustering>
<clus scale="   91.188">  2  3  1 -1</clus>
</clustering>
</event>
<event>
 5   3  0.8512900E+003  0.9524817E+02  0.7546771E-02  0.1172319E+00
       21   -1    0    0  503  502  0.00000000000E+00  0.00000000000E+00  0.91591765150E+01  0.91591765150E+01  0.00000000000E+00 0. -1.
       -1   -1    0    0    0  501 -0.00000000000E+00 -0.00000000000E+00 -0.48586788110E+04  0.48586788110E+04  0.00000000000E+00 0.  1.
       23    1    1    2    0    0 -0.15214753237E+02 -0.25190239392E+02 -0.45147371563E+04  0.45157538550E+04  0.91188000000E+02 0.  1.
       21    1    1    2  503  501 -0.22228095176E+02  0.28385352569E+02 -0.36005061723E+02  0.50952732265E+02  0.00000000000E+00 0. -1.
       -1    1    1    2    0  502  0.37442848413E+02 -0.31951131768E+01 -0.29877741650E+03  0.30113140031E+03  0.00000000000E+00 0.  1.
<scales pt_clust_3="100000.00000" pt_clust_4="36.05297" pt_clust_5="27.51296"></scales>
<rwgt>
<wgt id='bias'>   0.1000000E+01</wgt>
</rwgt>
<clustering>
<clus scale="   36.053">  1  4  2 -1</clus>
<clus scale="   27.513">  1  5  2 -1</clus>
<clus scale="   36.053">  1  3  2 -1</clus>
</clustering>
</event>
<event>
 4   2  0.8512900E+003  0.9176331E+02  0.7546771E-02  0.1178903E+00
       21   -1    0    0  501  502  0.00000000000E+00  0.00000000000E+00  0.32753414545E+03  0.32753414545E+03  0.00000000000E+00 0. -1.
        1   -1    0    0  502    0 -0.00000000000E+00 -0.00000000000E+00 -0.11750376050E+02  0.11750376050E+02  0.00000000000E+00 0. -1.
       23    1    1    2    0    0  0.67355464660E+01  0.77386493847E+01  0.17038319238E+03  0.19352244798E+03  0.91188000000E+02 0. -1.
        1    1    1    2  501    0 -0.67355464660E+01 -0.77386493847E+01  0.14540057702E+03  0.14576207353E+03  0.00000000000E+00 0. -1.
<scales pt_clust_3="100000.00000" pt_clust_4="10.25935"></scales>
<rwgt>
<wgt id='bias'>   0.1000000E+01</wgt>
</rwgt>
<clustering>
<clus scale="   10.259">  1  4  2 -1</clus>
<clus scale="   10.259">  1  3  2 -1</clus>
</clustering>
</event>
<event>
 4   2  0.8512900E+003  0.9178563E+02  0.7546771E-02  0.1178860E+00
       -5   -1    0    0    0  501 -0.00000000000E+00  0.00000000000E+00  0.45643237920E+01  0.45643237920E+01  0.00000000000E+00 0.  1.
       21   -1    0    0  501  502  0.00000000000E+00 -0.00000000000E+00 -0.62302672963E+03  0.62302672963E+03  0.00000000000E+00 0. -1.
       23    1    1    2    0    0  0.54739416784E+01 -0.89098640227E+01 -0.59305784960E+03  0.60011849999E+03  0.91188000000E+02 0. -1.
       -5    1    1    2    0  502 -0.54739416784E+01  0.89098640227E+01 -0.25404556236E+02  0.27472553429E+02  0.00000000000E+00 0.  1.
<scales pt_clust_3="100000.00000" pt_clust_4="10.45705"></scales>
<rwgt>
<wgt id='bias'>   0.1000000E+01</wgt>
</rwgt>
<clustering>
<clus scale="   10.457">  2  4  1 -1</clus>
<clus scale="   10.457">  2  3  1 -1</clus>
</clustering>
</event>
<event>
 3   1  0.8512900E+003  0.9118800E+02  0.7546771E-02  0.1180022E+00
       -5   -1    0    0    0  501 -0.00000000000E+00  0.00000000000E+00  0.40374041327E+03  0.40374041327E+03  0.00000000000E+00 0.  1.
        5   -1    0    0  501    0  0.00000000000E+00 -0.00000000000E+00 -0.51488846983E+01  0.51488846983E+01  0.00000000000E+00 0. -1.
       23    1    1    2    0    0  0.00000000000E+00 -0.00000000000E+00  0.39859152857E+03  0.40888929797E+03  0.91188000000E+02 0.  1.
<scales pt_clust_3="100000.00000"></scales>
<rwgt>
<wgt id='bias'>   0.1000000E+01</wgt>
</rwgt>
<clustering>
<clus scale="   91.188">  2  3  1 -1</clus>
</clustering>
</event>
<event>
 4   2  0.8512900E+003  0.9235376E+02  0.7546771E-02  0.1177765E+00
        3   -1    0    0  502    0  0.00000000000E+00  0.00000000000E+00  0.39693059898E+02  0.39693059898E+02  0.00000000000E+00 0. -1.
       -3   -1    0    0    0  501 -0.00000000000E+00 -0.00000000000E+00 -0.13380018959E+03  0.13380018959E+03  0.00000000000E+00 0.  1.
       23    1    1    2    0    0  0.41938240282E+01  0.14013480162E+02 -0.11530955074E+03  0.14773459182E+03  0.91188000000E+02 0.  1.
       21    1    1    2  502  501 -0.41938240282E+01 -0.14013480162E+02  0.21202421048E+02  0.25758657661E+02  0.00000000000E+00 0. -1.
<scales pt_clust_3="100000.00000" pt_clust_4="14.62757"></scales>
<rwgt>
<wgt id='bias'>   0.1000000E+01</wgt>
</rwgt>
<clustering>
<clus scale="   14.628">  1  4  2 -1</clus>
<clus scale="   14.628">  1  3  2 -1</clus>
</clustering>
</event>
<event>
 3   1  0.8512900E+003  0.9118800E+02  0.7546771E-02  0.1180022E+00
        3   -1    0    0  501    0  0.00000000000E+00  0.00000000000E+00  0.35116379527E+02  0.35116379527E+02  0.00000000000E+00 0. -1.
       -3   -1    0    0    0  501 -0.00000000000E+00 -0.00000000000E+00 -0.59197812076E+02  0.59197812076E+02  0.00000000000E+00 0.  1.
       23    1    1    2    0    0  0.00000000000E+00  0.00000000000E+00 -0.24081432549E+02  0.94314191602E+02  0.91188000000E+02 0. -1.
<scales pt_clust_3="100000.00000"></scales>
<rwgt>
<wgt id='bias'>   0.1000000E+01</wgt>
</rwgt>
<clustering>
<clus scale="   91.188">  1  3  2 -1</clus>
</clustering>
</event>
<event>
 4   2  0.8512900E+003  0.9282865E+02  0.7546771E-02  0.1176856E+00
        2   -1    0    0  502    0 -0.00000000000E+00  0.00000000000E+00  0.27304545115E+01  0.27304545115E+01  0.00000000000E+00 0. -1.
       21   -1    0    0  501  502  0.00000000000E+00 -0.00000000000E+00 -0.11130837398E+04  0.11130837398E+04  0.00000000000E+00 0.  1.
       23    1    1    2    0    0 -0.10616165372E+02  0.13755172145E+02 -0.92216299996E+03  0.92682347702E+03  0.91188000000E+02 0. -1.
        2    1    1    2  501    0  0.10616165372E+02 -0.13755172145E+02 -0.18819028534E+03  0.18899071730E+03  0.00000000000E+00 0. -1.
<scales pt_clust_3="100000.00000" pt_clust_4="17.37549"></scales>
<rwgt>
<wgt id='bias'>   0.1000000E+01</wgt>
</rwgt>
<clustering>
<clus scale="   17.375">  2  4  1 -1</clus>
<clus scale="   17.375">  2  3  1 -1</clus>
</clustering>
</event>
<event>
 4   2  0.8512900E+003  0.1022862E+03  0.7546771E-02  0.1159938E+00
       21   -1    0    0  501  502  0.00000000000E+00  0.00000000000E+00  0.49797435176E+02  0.49797435176E+02  0.00000000000E+00 0. -1.
        1   -1    0    0  502    0 -0.00000000000E+00 -0.00000000000E+00 -0.18387956431E+03  0.18387956431E+03  0.00000000000E+00 0. -1.
       23    1    1    2    0    0 -0.22298095765E+02 -0.40620330906E+02 -0.15265505361E+03  0.18375536208E+03  0.91188000000E+02 0. -1.
        1    1    1    2  501    0  0.22298095765E+02  0.40620330906E+02  0.18572924474E+02  0.49921637405E+02  0.00000000000E+00 0. -1.
<scales pt_clust_3="100000.00000" pt_clust_4="46.33807"></scales>
<rwgt>
<wgt id='bias'>   0.1000000E+01</wgt>
</rwgt>
<clustering>
<clus scale="   46.338">  1  4  2 -1</clus>
<clus scale="   46.338">  1  3  2 -1</clus>
</clustering>
</event>
<event>
 3   1  0.8512900E+003  0.9118800E+02  0.7546771E-02  0.1180022E+00
       -5   -1    0    0    0  501 -0.00000000000E+00  0.00000000000E+00  0.25697053524E+01  0.25697053524E+01  0.00000000000E+00 0.  1.
        5   -1    0    0  501    0  0.00000000000E+00 -0.00000000000E+00 -0.80896933732E+03  0.80896933732E+03  0.00000000000E+00 0. -1.
       23    1    1    2    0    0  0.00000000000E+00 -0.00000000000E+00 -0.80639963196E+03  0.81153904267E+03  0.91188000000E+02 0.  1.
<scales pt_clust_3="100000.00000"></scales>
<rwgt>
<wgt id='bias'>   0.1000000E+01</wgt>
</rwgt>
<clustering>
<clus scale="   91.188">  2  3  1 -1</clus>
</clustering>
</event>
<event>
 3   1  0.8512900E+003  0.9118800E+02  0.7546771E-02  0.1180022E+00
        1   -1    0    0  501    0  0.00000000000E+00  0.00000000000E+00  0.18440189146E+03  0.18440189146E+03  0.00000000000E+00 0. -1.
       -1   -1    0    0    0  501 -0.00000000000E+00 -0.00000000000E+00 -0.11273272848E+02  0.11273272848E+02  0.00000000000E+00 0.  1.
       23    1    1    2    0    0  0.00000000000E+00  0.00000000000E+00  0.17312861861E+03  0.19567516431E+03  0.91188000000E+02 0. -1.
<scales pt_clust_3="100000.00000"></scales>
<rwgt>
<wgt id='bias'>   0.1000000E+01</wgt>
</rwgt>
<clustering>
<clus scale="   91.188">  1  3  2 -1</clus>
</clustering>
</event>
<event>
 4   2  0.8512900E+003  0.9644601E+02  0.7546771E-02  0.1170129E+00
        3   -1    0    0  502    0 -0.00000000000E+00  0.00000000000E+00  0.21823544492E+04  0.21823544492E+04  0.00000000000E+00 0. -1.
       21   -1    0    0  501  502  0.00000000000E+00 -0.00000000000E+00 -0.27956547327E+01  0.27956547327E+01  0.00000000000E+00 0.  1.
       23    1    1    2    0    0 -0.25895028470E+02 -0.17777200525E+02  0.20318933065E+04  0.20341809756E+04  0.91188000000E+02 0.  0.
        3    1    1    2  501    0  0.25895028470E+02  0.17777200525E+02  0.14766548805E+03  0.15096912837E+03  0.00000000000E+00 0. -1.
<scales pt_clust_3="100000.00000" pt_clust_4="31.40989"></scales>
<rwgt>
<wgt id='bias'>   0.1000000E+01</wgt>
</rwgt>
<clustering>
<clus scale="   31.410">  2  4  1 -1</clus>
<clus scale="   31.410">  2  3  1 -1</clus>
</clustering>
</event>
<event>
 5   3  0.8512900E+003  0.1273061E+03  0.7546771E-02  0.1123538E+00
       21   -1    0    0  503  502  0.00000000000E+00  0.00000000000E+00  0.54400081816E+03  0.54400081816E+03  0.00000000000E+00 0. -1.
        4   -1    0    0  502    0 -0.00000000000E+00 -0.00000000000E+00 -0.24116115930E+02  0.24116115930E+02  0.00000000000E+00 0. -1.
       23    1    1    2    0    0  0.44346548189E+02 -0.76973886439E+02  0.21609959218E+03  0.25081044758E+03  0.91188000000E+02 0. -1.
       21    1    1    2  503  501 -0.31205259530E+01  0.14715417943E+02  0.30560398916E+02  0.34061990390E+02  0.00000000000E+00 0.  1.
        4    1    1    2  501    0 -0.41226022236E+02  0.62258468497E+02  0.27322471113E+03  0.28324449612E+03  0.00000000000E+00 0. -1.
<scales pt_clust_3="100000.00000" pt_clust_4="10.10047" pt_clust_5="91.64067"></scales>
<rwgt>
<wgt id='bias'>   0.1000000E+01</wgt>
</rwgt>
<clustering>
<clus scale="   10.100">  4  5 -1 -1</clus>
<clus scale="   91.641">  1  4  2 -1</clus>
<clus scale="   91.641">  1  3  2 -1</clus>
</clustering>
</event>
<event>
 3   1  0.8512900E+003  0.9118800E+02  0.7546771E-02  0.1180022E+00
        2   -1    0    0  501    0  0.00000000000E+00  0.00000000000E+00  0.86555294559E+00  0.86555294559E+00  0.00000000000E+00 0. -1.
       -2   -1    0    0    0  501 -0.00000000000E+00 -0.00000000000E+00 -0.24017165519E+04  0.24017165519E+04  0.00000000000E+00 0.  1.
       23    1    1    2    0    0  0.00000000000E+00  0.00000000000E+00 -0.24008509990E+04  0.24025821049E+04  0.91188000000E+02 0. -1.
<scales pt_clust_3="100000.00000"></scales>
<rwgt>
<wgt id='bias'>   0.1000000E+01</wgt>
</rwgt>
<clustering>
<clus scale="   91.188">  1  3  2 -1</clus>
</clustering>
</event>
<event>
 3   1  0.8512900E+003  0.9118800E+02  0.7546771E-02  0.1180022E+00
        2   -1    0    0  501    0  0.00000000000E+00  0.00000000000E+00  0.29746895404E+04  0.29746895404E+04  0.00000000000E+00 0. -1.
       -2   -1    0    0    0  501 -0.00000000000E+00 -0.00000000000E+00 -0.69883354473E+00  0.69883354473E+00  0.00000000000E+00 0.  1.
       23    1    1    2    0    0  0.00000000000E+00  0.00000000000E+00  0.29739907069E+04  0.29753883740E+04  0.91188000000E+02 0. -1.
<scales pt_clust_3="100000.00000"></scales>
<rwgt>
<wgt id='bias'>   0.1000000E+01</wgt>
</rwgt>
<clustering>
<clus scale="   91.188">  1  3  2 -1</clus>
</clustering>
</event>
<event>
 4   2  0.8512900E+003  0.1038643E+03  0.7546771E-02  0.1157315E+00
       -4   -1    0    0    0  501 -0.00000000000E+00  0.00000000000E+00  0.12811696467E+03  0.12811696467E+03  0.00000000000E+00 0.  1.
       21   -1    0    0  501  502  0.00000000000E+00 -0.00000000000E+00 -0.50108417691E+02  0.50108417691E+02  0.00000000000E+00 0.  1.
       23    1    1    2    0    0 -0.38895218963E+02  0.30978968313E+02  0.75559093110E+02  0.12844050152E+03  0.91188000000E+02 0.  1.
       -4    1    1    2    0  502  0.38895218963E+02 -0.30978968313E+02  0.24494538694E+01  0.49784880839E+02  0.00000000000E+00 0.  1.
<scales pt_clust_3="100000.00000" pt_clust_4="49.72459"></scales>
<rwgt>
<wgt id='bias'>   0.1000000E+01</wgt>
</rwgt>
<clustering>
<clus scale="   49.725">  2  4  1 -1</clus>
<clus scale="   49.725">  2  3  1 -1</clus>
</clustering>
</event>
<event>
 3   1  0.8512900E+003  0.9118800E+02  0.7546771E-02  0.1180022E+00
       -1   -1    0    0    0  501 -0.00000000000E+00  0.00000000000E+00  0.17631412756E+03  0.17631412756E+03  0.00000000000E+00 0.  1.
        1   -1    0    0  501    0  0.00000000000E+00 -0.00000000000E+00 -0.11790392890E+02  0.11790392890E+02  0.00000000000E+00 0. -1.
       23    1    1    2    0    0  0.00000000000E+00 -0.00000000000E+00  0.16452373467E+03  0.18810452045E+03  0.91188000000E+02 0.  1.
<scales pt_clust_3="100000.00000"></scales>
<rwgt>
<wgt id='bias'>   0.1000000E+01</wgt>
</rwgt>
<clustering>
<clus scale="   91.188">  2  3  1 -1</clus>
</clustering>
</event>
<event>
 3   1  0.8512900E+003  0.9118800E+02  0.7546771E-02  0.1180022E+00
        3   -1    0    0  501    0  0.00000000000E+00  0.00000000000E+00  0.13484594347E+03  0.13484594347E+03  0.00000000000E+00 0. -1.
       -3   -1    0    0    0  501 -0.00000000000E+00 -0.00000000000E+00 -0.15416205949E+02  0.15416205949E+02  0.00000000000E+00 0.  1.
       23    1    1    2    0    0  0.00000000000E+00  0.00000000000E+00  0.11942973752E+03  0.15026214942E+03  0.91188000000E+02 0. -1.
<scales pt_clust_3="100000.00000"></scales>
<rwgt>
<wgt id='bias'>   0.1000000E+01</wgt>
</rwgt>
<clustering>
<clus scale="   91.188">  1  3  2 -1</clus>
</clustering>
</event>
<event>
 5   3  0.8512900E+003  0.1957343E+03  0.7546771E-02  0.1058372E+00
       21   -1    0    0  501  502  0.00000000000E+00  0.00000000000E+00  0.38636734931E+03  0.38636734931E+03  0.00000000000E+00 0.  1.
       21   -1    0    0  502  503 -0.00000000000E+00 -0.00000000000E+00 -0.47030290271E+02  0.47030290271E+02  0.00000000000E+00 0. -1.
       23    1    1    2    0    0  0.50472502073E+02  0.50655937073E+02  0.14765181147E+03  0.18769604738E+03  0.91188000000E+02 0.  1.
        2    1    1    2  501    0  0.49804939520E+01 -0.19235770325E+02  0.17976596276E+03  0.18086077946E+03  0.00000000000E+00 0.  1.
       -2    1    1    2    0  503 -0.55452996025E+02 -0.31420166748E+02  0.11919284804E+02  0.64840812740E+02  0.00000000000E+00 0. -1.
<scales pt_clust_3="100000.00000" pt_clust_4="19.87008" pt_clust_5="100000.00000"></scales>
<rwgt>
<wgt id='bias'>   0.1000000E+01</wgt>
</rwgt>
<clustering>
<clus scale="   19.870">  1  4  2 -1</clus>
<clus scale="   64.794">  3  5 -1 -1</clus>
<clus scale="   19.870">  1  3  2 -1</clus>
</clustering>
</event>
<event>
 5   3  0.8512900E+003  0.1942248E+03  0.7546771E-02  0.1059476E+00
       21   -1    0    0  503  502  0.00000000000E+00  0.00000000000E+00  0.27679344532E+03  0.27679344532E+03  0.00000000000E+00 0.  1.
       -1   -1    0    0    0  501 -0.00000000000E+00 -0.00000000000E+00 -0.76185708933E+02  0.76185708933E+02  0.00000000000E+00 0.  1.
       23    1    1    2    0    0 -0.10657069648E+02  0.22054346446E+02  0.18286200208E+02  0.96174860503E+02  0.91188000000E+02 0.  0.
       21    1    1    2  503  501  0.32768090444E+02 -0.89266514998E+02  0.51666332427E+02  0.10822046183E+03  0.00000000000E+00 0.  1.
       -1    1    1    2    0  502 -0.22111020796E+02  0.67212168552E+02  0.13065520375E+03  0.14858383193E+03  0.00000000000E+00 0.  1.
<scales pt_clust_3="100000.00000" pt_clust_4="95.09084" pt_clust_5="100000.00000"></scales>
<rwgt>
<wgt id='bias'>   0.1000000E+01</wgt>
</rwgt>
<clustering>
<clus scale="   70.756">  3  5 -1 -1</clus>
<clus scale="   95.091">  1  4  2 -1</clus>
<clus scale="   95.091">  1  3  2 -1</clus>
</clustering>
</event>
<event>
 3   1  0.8512900E+003  0.9118800E+02  0.7546771E-02  0.1180022E+00
       -1   -1    0    0    0  501 -0.00000000000E+00  0.00000000000E+00  0.64510439077E+03  0.64510439077E+03  0.00000000000E+00 0.  1.
        1   -1    0    0  501    0  0.00000000000E+00 -0.00000000000E+00 -0.32224440970E+01  0.32224440970E+01  0.00000000000E+00 0. -1.
       23    1    1    2    0    0  0.00000000000E+00 -0.00000000000E+00  0.64188194668E+03  0.64832683487E+03  0.91188000000E+02 0.  1.
<scales pt_clust_3="100000.00000"></scales>
<rwgt>
<wgt id='bias'>   0.1000000E+01</wgt>
</rwgt>
<clustering>
<clus scale="   91.188">  2  3  1 -1</clus>
</clustering>
</event>
<event>
 4   2  0.8512900E+003  0.9276623E+02  0.7546771E-02  0.1176975E+00
        1   -1    0    0  502    0  0.00000000000E+00  0.00000000000E+00  0.20047909575E+04  0.20047909575E+04  0.00000000000E+00 0. -1.
       -1   -1    0    0    0  501 -0.00000000000E+00 -0.00000000000E+00 -0.20802877534E+01  0.20802877534E+01  0.00000000000E+00 0.  1.
       23    1    1    2    0    0 -0.56135781541E+01 -0.16087561940E+02  0.10724745416E+04  0.10764790828E+04  0.91188000000E+02 0.  1.
       21    1    1    2  502  501  0.56135781541E+01  0.16087561940E+02  0.93023612816E+03  0.93039216250E+03  0.00000000000E+00 0. -1.
<scales pt_clust_3="100000.00000" pt_clust_4="17.03884"></scales>
<rwgt>
<wgt id='bias'>   0.1000000E+01</wgt>
</rwgt>
<clustering>
<clus scale="   17.039">  1  4  2 -1</clus>
<clus scale="   17.039">  1  3  2 -1</clus>
</clustering>
</event>
<event>
 4   2  0.8512900E+003  0.1017418E+03  0.7546771E-02  0.1160856E+00
       21   -1    0    0  501  502  0.00000000000E+00  0.00000000000E+00  0.27028724206E+02  0.27028724206E+02  0.00000000000E+00 0. -1.
       -5   -1    0    0    0  501 -0.00000000000E+00 -0.00000000000E+00 -0.20194530325E+03  0.20194530325E+03  0.00000000000E+00 0.  1.
       23    1    1    2    0    0  0.39991640564E+02 -0.20900203863E+02 -0.10914288160E+03  0.14920981799E+03  0.91188000000E+02 0.  0.
       -5    1    1    2    0  502 -0.39991640564E+02  0.20900203863E+02 -0.65773697443E+02  0.79764209467E+02  0.00000000000E+00 0.  1.
<scales pt_clust_3="100000.00000" pt_clust_4="45.12374"></scales>
<rwgt>
<wgt id='bias'>   0.1000000E+01</wgt>
</rwgt>
<clustering>
<clus scale="   45.124">  1  4  2 -1</clus>
<clus scale="   45.124">  1  3  2 -1</clus>
</clustering>
</event>
<event>
 4   2  0.8512900E+003  0.9411539E+02  0.7546771E-02  0.1174424E+00
        2   -1    0    0  502    0  0.00000000000E+00  0.00000000000E+00  0.20307170492E+04  0.20307170492E+04  0.00000000000E+00 0. -1.
       -2   -1    0    0    0  501 -0.00000000000E+00 -0.00000000000E+00 -0.18434236331E+01  0.18434236331E+01  0.00000000000E+00 0.  1.
       23    1    1    2    0    0  0.18401942484E+02  0.14276703175E+02  0.18113736686E+04  0.18138170454E+04  0.91188000000E+02 0. -1.
       21    1    1    2  502  501 -0.18401942484E+02 -0.14276703175E+02  0.21749995703E+03  0.21874342744E+03  0.00000000000E+00 0.  1.
<scales pt_clust_3="100000.00000" pt_clust_4="23.29068"></scales>
<rwgt>
<wgt id='bias'>   0.1000000E+01</wgt>
</rwgt>
<clustering>
<clus scale="   23.291">  2  4  1 -1</clus>
<clus scale="   94.115">  1  3  2 -1</clus>
</clustering>
</event>
<event>
 4   2  0.8512900E+003  0.9391403E+02  0.7546771E-02  0.1174802E+00
       21   -1    0    0  501  502  0.00000000000E+00  0.00000000000E+00  0.24779835510E+02  0.24779835510E+02  0.00000000000E+00 0.  1.
       -2   -1    0    0    0  501 -0.00000000000E+00 -0.00000000000E+00 -0.17372070686E+04  0.17372070686E+04  0.00000000000E+00 0.  1.
       23    1    1    2    0    0  0.21787068883E+02 -0.54695891674E+01 -0.17305673886E+04  0.17331137674E+04  0.91188000000E+02 0.  1.
       -2    1    1    2    0  502 -0.21787068883E+02  0.54695891674E+01  0.18140155593E+02  0.28873136669E+02  0.00000000000E+00 0.  1.
<scales pt_clust_3="100000.00000" pt_clust_4="22.46314"></scales>
<rwgt>
<wgt id='bias'>   0.1000000E+01</wgt>
</rwgt>
<clustering>
<clus scale="   22.463">  1  4  2 -1</clus>
<clus scale="   22.463">  1  3  2 -1</clus>
</clustering>
</event>
<event>
 3   1  0.8512900E+003  0.9118800E+02  0.7546771E-02  0.1180022E+00
        5   -1    0    0  501    0  0.00000000000E+00  0.00000000000E+00  0.17321132513E+03  0.17321132513E+03  0.00000000000E+00 0. -1.
       -5   -1    0    0    0  501 -0.00000000000E+00 -0.00000000000E+00 -0.12001598824E+02  0.12001598824E+02  0.00000000000E+00 0.  1.
       23    1    1    2    0    0  0.00000000000E+00  0.00000000000E+00  0.16120972631E+03  0.18521292395E+03  0.91188000000E+02 0. -1.
<scales pt_clust_3="100000.00000"></scales>
<rwgt>
<wgt id='bias'>   0.1000000E+01</wgt>
</rwgt>
<clustering>
<clus scale="   91.188">  1  3  2 -1</clus>
</clustering>
</event>
<event>
 3   1  0.8512900E+003  0.9118800E+02  0.7546771E-02  0.1180022E+00
       -5   -1    0    0    0  501 -0.00000000000E+00  0.00000000000E+00  0.57053534532E+01  0.57053534532E+01  0.00000000000E+00 0.  1.
        5   -1    0    0  501    0  0.00000000000E+00 -0.00000000000E+00 -0.36436179687E+03  0.36436179687E+03  0.00000000000E+00 0. -1.
       23    1    1    2    0    0  0.00000000000E+00 -0.00000000000E+00 -0.35865644342E+03  0.37006715033E+03  0.91188000000E+02 0.  1.
<scales pt_clust_3="100000.00000"></scales>
<rwgt>
<wgt id='bias'>   0.1000000E+01</wgt>
</rwgt>
<clustering>
<clus scale="   91.188">  2  3  1 -1</clus>
</clustering>
</event>
<event>
 3   1  0.8512900E+003  0.9118800E+02  0.7546771E-02  0.1180022E+00
       -2   -1    0    0    0  501 -0.00000000000E+00  0.00000000000E+00  0.24519257259E+01  0.24519257259E+01  0.00000000000E+00 0.  1.
        2   -1    0    0  501    0  0.00000000000E+00 -0.00000000000E+00 -0.84782863283E+03  0.84782863283E+03  0.00000000000E+00 0. -1.
       23    1    1    2    0    0  0.00000000000E+00 -0.00000000000E+00 -0.84537670711E+03  0.85028055856E+03  0.91188000000E+02 0.  1.
<scales pt_clust_3="100000.00000"></scales>
<rwgt>
<wgt id='bias'>   0.1000000E+01</wgt>
</rwgt>
<clustering>
<clus scale="   91.188">  2  3  1 -1</clus>
</clustering>
</event>
<event>
 5   3  0.8512900E+003  0.3505398E+02  0.7546771E-02  0.1167885E+00
       21   -1    0    0  503  502  0.00000000000E+00  0.00000000000E+00  0.14185603702E+02  0.14185603702E+02  0.00000000000E+00 0. -1.
       21   -1    0    0  501  503 -0.00000000000E+00 -0.00000000000E+00 -0.48676212639E+03  0.48676212639E+03  0.00000000000E+00 0.  1.
       23    1    1    2    0    0  0.26705445818E+02  0.13718078512E+02 -0.33557167041E+03  0.34903433046E+03  0.91188000000E+02 0.  1.
        1    1    1    2  501    0 -0.11086663154E+02  0.19602490020E+02 -0.86751138473E+02  0.89626624065E+02  0.00000000000E+00 0. -1.
       -1    1    1    2    0  502 -0.15618782664E+02 -0.33320568532E+02 -0.50253713807E+02  0.62286775567E+02  0.00000000000E+00 0.  1.
<scales pt_clust_3="100000.00000" pt_clust_4="22.52047" pt_clust_5="35.05398"></scales>
<rwgt>
<wgt id='bias'>   0.1000000E+01</wgt>
</rwgt>
<clustering>
<clus scale="   22.520">  2  4  1 -1</clus>
<clus scale="   35.054">  1  5  2 -1</clus>
<clus scale="   35.054">  1  3  2 -1</clus>
</clustering>
</event>
<event>
 5   3  0.8512900E+003  0.9773569E+02  0.7546771E-02  0.1167810E+00
       -1   -1    0    0    0  501 -0.00000000000E+00  0.00000000000E+00  0.11302046487E+01  0.11302046487E+01  0.00000000000E+00 0.  1.
        2   -1    0    0  501    0  0.00000000000E+00 -0.00000000000E+00 -0.58304101144E+04  0.58304101144E+04  0.00000000000E+00 0.  1.
       23    1    1    2    0    0  0.25164670020E+02 -0.51621108496E+01 -0.23445088121E+04  0.23464221123E+04  0.91188000000E+02 0.  1.
        2    1    1    2  502    0 -0.33531668268E+02  0.14159072214E+02 -0.28042085310E+04  0.28044447467E+04  0.00000000000E+00 0.  1.
       -1    1    1    2    0  502  0.83669982485E+01 -0.89969613646E+01 -0.68056256661E+03  0.68067345992E+03  0.00000000000E+00 0.  1.
<scales pt_clust_3="100000.00000" pt_clust_4="35.17123" pt_clust_5="12.28626"></scales>
<rwgt>
<wgt id='bias'>   0.1000000E+01</wgt>
</rwgt>
<clustering>
<clus scale="   12.286">  1  5  2 -1</clus>
<clus scale="   35.171">  1  4  2 -1</clus>
<clus scale="   97.736">  2  3  1 -1</clus>
</clustering>
</event>
<event>
 3   1  0.8512900E+003  0.9118800E+02  0.7546771E-02  0.1180022E+00
        1   -1    0    0  501    0  0.00000000000E+00  0.00000000000E+00  0.10724646042E+03  0.10724646042E+03  0.00000000000E+00 0. -1.
       -1   -1    0    0    0  501 -0.00000000000E+00 -0.00000000000E+00 -0.19383509981E+02  0.19383509981E+02  0.00000000000E+00 0.  1.
       23    1    1    2    0    0  0.00000000000E+00  0.00000000000E+00  0.87862950438E+02  0.12662997040E+03  0.91188000000E+02 0. -1.
<scales pt_clust_3="100000.00000"></scales>
<rwgt>
<wgt id='bias'>   0.1000000E+01</wgt>
</rwgt>
<clustering>
<clus scale="   91.188">  1  3  2 -1</clus>
</clustering>
</event>
<event>
 3   1  0.8512900E+003  0.9118800E+02  0.7546771E-02  0.1180022E+00
        1   -1    0    0  501    0  0.00000000000E+00  0.00000000000E+00  0.26624539862E+03  0.26624539862E+03  0.00000000000E+00 0. -1.
       -1   -1    0    0    0  501 -0.00000000000E+00 -0.00000000000E+00 -0.78078826781E+01  0.78078826781E+01  0.00000000000E+00 0.  1.
       23    1    1    2    0    0  0.00000000000E+00  0.00000000000E+00  0.25843751594E+03  0.27405328130E+03  0.91188000000E+02 0. -1.
<scales pt_clust_3="100000.00000"></scales>
<rwgt>
<wgt id='bias'>   0.1000000E+01</wgt>
</rwgt>
<clustering>
<clus scale="   91.188">  1  3  2 -1</clus>
</clustering>
</event>
<event>
 3   1  0.8512900E+003  0.9118800E+02  0.7546771E-02  0.1180022E+00
       -2   -1    0    0    0  501 -0.00000000000E+00  0.00000000000E+00  0.70239237436E+01  0.70239237436E+01  0.00000000000E+00 0.  1.
        2   -1    0    0  501    0  0.00000000000E+00 -0.00000000000E+00 -0.29596176039E+03  0.29596176039E+03  0.00000000000E+00 0. -1.
       23    1    1    2    0    0  0.00000000000E+00 -0.00000000000E+00 -0.28893783664E+03  0.30298568413E+03  0.91188000000E+02 0.  1.
<scales pt_clust_3="100000.00000"></scales>
<rwgt>
<wgt id='bias'>   0.1000000E+01</wgt>
</rwgt>
<clustering>
<clus scale="   91.188">  2  3  1 -1</clus>
</clustering>
</event>
<event>
 4   2  0.8512900E+003  0.1172425E+03  0.7546771E-02  0.1136965E+00
        2   -1    0    0  502    0 -0.00000000000E+00  0.00000000000E+00  0.87390173011E+04  0.87390173011E+04  0.00000000000E+00 0. -1.
       21   -1    0    0  501  502  0.00000000000E+00 -0.00000000000E+00 -0.20802412335E+01  0.20802412335E+01  0.00000000000E+00 0. -1.
       23    1    1    2    0    0 -0.59018829953E+02  0.44128573806E+02  0.79137870032E+04  0.79146554276E+04  0.91188000000E+02 0. -1.
        2    1    1    2  501    0  0.59018829953E+02 -0.44128573806E+02  0.82315005663E+03  0.82644211475E+03  0.00000000000E+00 0. -1.
<scales pt_clust_3="100000.00000" pt_clust_4="73.69229"></scales>
<rwgt>
<wgt id='bias'>   0.1000000E+01</wgt>
</rwgt>
<clustering>
<clus scale="   73.692">  2  4  1 -1</clus>
<clus scale="   73.692">  2  3  1 -1</clus>
</clustering>
</event>
<event>
 3   1  0.8512900E+003  0.9118800E+02  0.7546771E-02  0.1180022E+00
       -1   -1    0    0    0  501 -0.00000000000E+00  0.00000000000E+00  0.91131794609E+03  0.91131794609E+03  0.00000000000E+00 0.  1.
        1   -1    0    0  501    0  0.00000000000E+00 -0.00000000000E+00 -0.22811060014E+01  0.22811060014E+01  0.00000000000E+00 0. -1.
       23    1    1    2    0    0  0.00000000000E+00 -0.00000000000E+00  0.90903684009E+03  0.91359905209E+03  0.91188000000E+02 0.  1.
<scales pt_clust_3="100000.00000"></scales>
<rwgt>
<wgt id='bias'>   0.1000000E+01</wgt>
</rwgt>
<clustering>
<clus scale="   91.188">  2  3  1 -1</clus>
</clustering>
</event>
<event>
 4   2  0.8512900E+003  0.2271914E+03  0.7546771E-02  0.1037546E+00
        4   -1    0    0  502    0 -0.00000000000E+00  0.00000000000E+00  0.21560967059E+02  0.21560967059E+02  0.00000000000E+00 0. -1.
       21   -1    0    0  501  502  0.00000000000E+00 -0.00000000000E+00 -0.59848798203E+03  0.59848798203E+03  0.00000000000E+00 0.  1.
       23    1    1    2    0    0  0.67513459280E+02 -0.58804718174E+02 -0.42400772059E+03  0.44284744611E+03  0.91188000000E+02 0.  1.
        4    1    1    2  501    0 -0.67513459280E+02  0.58804718174E+02 -0.15291929438E+03  0.17720150298E+03  0.00000000000E+00 0. -1.
<scales pt_clust_3="100000.00000" pt_clust_4="100000.00000"></scales>
<rwgt>
<wgt id='bias'>   0.1000000E+01</wgt>
</rwgt>
<clustering>
<clus scale="   89.533">  3  4 -1 -1</clus>
<clus scale="  227.191">  2  3  1 -1</clus>
</clustering>
</event>
<event>
 5   3  0.8512900E+003  0.3770337E+03  0.7546771E-02  0.9726194E-01
       21   -1    0    0  503  502  0.00000000000E+00  0.00000000000E+00  0.15600625229E+04  0.15600625229E+04  0.00000000000E+00 0. -1.
        5   -1    0    0  502    0 -0.00000000000E+00 -0.00000000000E+00 -0.27779679375E+02  0.27779679375E+02  0.00000000000E+00 0. -1.
       23    1    1    2    0    0 -0.15239770691E+03 -0.85511686988E+02  0.85711853680E+03  0.87949118651E+03  0.91188000000E+02 0. -1.
       21    1    1    2  503  501 -0.31096357945E+01  0.23463828766E+02  0.25440258622E+03  0.25550126608E+03  0.00000000000E+00 0. -1.
        5    1    1    2  501    0  0.15550734270E+03  0.62047858222E+02  0.42076172056E+03  0.45284974973E+03  0.00000000000E+00 0. -1.
<scales pt_clust_3="100000.00000" pt_clust_4="23.66899" pt_clust_5="100000.00000"></scales>
<rwgt>
<wgt id='bias'>   0.1000000E+01</wgt>
</rwgt>
<clustering>
<clus scale="   23.669">  1  4  2 -1</clus>
<clus scale="  169.547">  3  5 -1 -1</clus>
<clus scale="   23.669">  1  3  2 -1</clus>
</clustering>
</event>
<event>
 4   2  0.8512900E+003  0.1057494E+03  0.7546771E-02  0.1154248E+00
       21   -1    0    0  501  502  0.00000000000E+00  0.00000000000E+00  0.18009636738E+02  0.18009636738E+02  0.00000000000E+00 0.  1.
       -5   -1    0    0    0  501 -0.00000000000E+00 -0.00000000000E+00 -0.37782541231E+03  0.37782541231E+03  0.00000000000E+00 0.  1.
       23    1    1    2    0    0 -0.30152374089E+02 -0.44255099967E+02 -0.28370612702E+03  0.30277400382E+03  0.91188000000E+02 0.  1.
       -5    1    1    2    0  502  0.30152374089E+02  0.44255099967E+02 -0.76109648554E+02  0.93061045230E+02  0.00000000000E+00 0.  1.
<scales pt_clust_3="100000.00000" pt_clust_4="53.55072"></scales>
<rwgt>
<wgt id='bias'>   0.1000000E+01</wgt>
</rwgt>
<clustering>
<clus scale="   53.551">  1  4  2 -1</clus>
<clus scale="   53.551">  1  3  2 -1</clus>
</clustering>
</event>
<event>
 4   2  0.8512900E+003  0.1308048E+03  0.7546771E-02  0.1119190E+00
       -3   -1    0    0    0  501 -0.00000000000E+00  0.00000000000E+00  0.42516003517E+04  0.42516003517E+04  0.00000000000E+00 0.  1.
       21   -1    0    0  501  502  0.00000000000E+00 -0.00000000000E+00 -0.10060855357E+01  0.10060855357E+01  0.00000000000E+00 0.  1.
       23    1    1    2    0    0 -0.19602768647E+02  0.15471422041E+02  0.38898509688E+04  0.38909998001E+04  0.91188000000E+02 0.  1.
       -3    1    1    2    0  502  0.19602768647E+02 -0.15471422041E+02  0.36074329736E+03  0.36160663714E+03  0.00000000000E+00 0.  1.
<scales pt_clust_3="100000.00000" pt_clust_4="100000.00000"></scales>
<rwgt>
<wgt id='bias'>   0.1000000E+01</wgt>
</rwgt>
<clustering>
<clus scale="   24.973">  3  4 -1 -1</clus>
<clus scale="  130.805">  2  3  1 -1</clus>
</clustering>
</event>
<event>
 3   1  0.8512900E+003  0.9118800E+02  0.7546771E-02  0.1180022E+00
       -1   -1    0    0    0  501 -0.00000000000E+00  0.00000000000E+00  0.45567678210E+03  0.45567678210E+03  0.00000000000E+00 0.  1.
        1   -1    0    0  501    0  0.00000000000E+00 -0.00000000000E+00 -0.45620336995E+01  0.45620336995E+01  0.00000000000E+00 0. -1.
       23    1    1    2    0    0  0.00000000000E+00 -0.00000000000E+00  0.45111474840E+03  0.46023881580E+03  0.91188000000E+02 0.  1.
<scales pt_clust_3="100000.00000"></scales>
<rwgt>
<wgt id='bias'>   0.1000000E+01</wgt>
</rwgt>
<clustering>
<clus scale="   91.188">  2  3  1 -1</clus>
</clustering>
</event>
<event>
 3   1  0.8512900E+003  0.9118800E+02  0.7546771E-02  0.1180022E+00
        3   -1    0    0  501    0  0.00000000000E+00  0.00000000000E+00  0.14352524903E+04  0.14352524903E+04  0.00000000000E+00 0. -1.
       -3   -1    0    0    0  501 -0.00000000000E+00 -0.00000000000E+00 -0.14483952127E+01  0.14483952127E+01  0.00000000000E+00 0.  1.
       23    1    1    2    0    0  0.00000000000E+00  0.00000000000E+00  0.14338040951E+04  0.14367008855E+04  0.91188000000E+02 0. -1.
<scales pt_clust_3="100000.00000"></scales>
<rwgt>
<wgt id='bias'>   0.1000000E+01</wgt>
</rwgt>
<clustering>
<clus scale="   91.188">  1  3  2 -1</clus>
</clustering>
</event>
<event>
 4   2  0.8512900E+003  0.1093819E+03  0.7546771E-02  0.1148533E+00
        1   -1    0    0  502    0  0.00000000000E+00  0.00000000000E+00  0.53786330686E+02  0.53786330686E+02  0.00000000000E+00 0. -1.
       -1   -1    0    0    0  501 -0.00000000000E+00 -0.00000000000E+00 -0.94540421358E+03  0.94540421358E+03  0.00000000000E+00 0.  1.
       23    1    1    2    0    0  0.60148605214E+02  0.55932186463E+01 -0.92413555830E+03  0.93058633144E+03  0.91188000000E+02 0.  1.
       21    1    1    2  502  501 -0.60148605214E+02 -0.55932186463E+01  0.32517675405E+02  0.68604212828E+02  0.00000000000E+00 0. -1.
<scales pt_clust_3="100000.00000" pt_clust_4="60.40810"></scales>
<rwgt>
<wgt id='bias'>   0.1000000E+01</wgt>
</rwgt>
<clustering>
<clus scale="   60.408">  1  4  2 -1</clus>
<clus scale="   60.408">  1  3  2 -1</clus>
</clustering>
</event>
<event>
 4   2  0.8512900E+003  0.9180975E+02  0.7546771E-02  0.1178814E+00
       21   -1    0    0  501  502  0.00000000000E+00  0.00000000000E+00  0.83447358397E+02  0.83447358397E+02  0.00000000000E+00 0.  1.
       -3   -1    0    0    0  501 -0.00000000000E+00 -0.00000000000E+00 -0.33271125608E+02  0.33271125608E+02  0.00000000000E+00 0.  1.
       23    1    1    2    0    0 -0.10664960748E+02 -0.19276892078E+00  0.35187811599E+02  0.98321981147E+02  0.91188000000E+02 0.  1.
       -3    1    1    2    0  502  0.10664960748E+02  0.19276892078E+00  0.14988421190E+02  0.18396502858E+02  0.00000000000E+00 0.  1.
<scales pt_clust_3="100000.00000" pt_clust_4="10.66670"></scales>
<rwgt>
<wgt id='bias'>   0.1000000E+01</wgt>
</rwgt>
<clustering>
<clus scale="   10.667">  1  4  2 -1</clus>
<clus scale="   10.667">  1  3  2 -1</clus>
</clustering>
</event>
<event>
 3   1  0.8512900E+003  0.9118800E+02  0.7546771E-02  0.1180022E+00
        1   -1    0    0  501    0  0.00000000000E+00  0.00000000000E+00  0.57302173855E+01  0.57302173855E+01  0.00000000000E+00 0. -1.
       -1   -1    0    0    0  501 -0.00000000000E+00 -0.00000000000E+00 -0.36278079803E+03  0.36278079803E+03  0.00000000000E+00 0.  1.
       23    1    1    2    0    0  0.00000000000E+00  0.00000000000E+00 -0.35705058064E+03  0.36851101542E+03  0.91188000000E+02 0. -1.
<scales pt_clust_3="100000.00000"></scales>
<rwgt>
<wgt id='bias'>   0.1000000E+01</wgt>
</rwgt>
<clustering>
<clus scale="   91.188">  1  3  2 -1</clus>
</clustering>
</event>
<event>
 5   3  0.8512900E+003  0.7544825E+02  0.7546771E-02  0.1135410E+00
       21   -1    0    0  501  502  0.00000000000E+00  0.00000000000E+00  0.49406730878E+03  0.49406730878E+03  0.00000000000E+00 0. -1.
        4   -1    0    0  503    0 -0.00000000000E+00 -0.00000000000E+00 -0.35216892754E+03  0.35216892754E+03  0.00000000000E+00 0. -1.
       23    1    1    2    0    0  0.74744110525E+02  0.18736301493E+02  0.24952051519E+02  0.12196551673E+03  0.91188000000E+02 0.  1.
       21    1    1    2  503  502 -0.75053133883E+02  0.96021839871E+01 -0.29845844648E+03  0.30790033959E+03  0.00000000000E+00 0. -1.
        4    1    1    2  501    0  0.30902335762E+00 -0.28338485480E+02  0.41540477620E+03  0.41637038001E+03  0.00000000000E+00 0. -1.
<scales pt_clust_3="100000.00000" pt_clust_4="75.44825" pt_clust_5="28.34017"></scales>
<rwgt>
<wgt id='bias'>   0.1000000E+01</wgt>
</rwgt>
<clustering>
<clus scale="   28.340">  1  5  2 -1</clus>
<clus scale="   75.448">  2  4  1 -1</clus>
<clus scale="   28.340">  1  3  2 -1</clus>
</clustering>
</event>
<event>
 3   1  0.8512900E+003  0.9118800E+02  0.7546771E-02  0.1180022E+00
       -4   -1    0    0    0  501 -0.00000000000E+00  0.00000000000E+00  0.55000733369E+00  0.55000733369E+00  0.00000000000E+00 0.  1.
        4   -1    0    0  501    0  0.00000000000E+00 -0.00000000000E+00 -0.37796093046E+04  0.37796093046E+04  0.00000000000E+00 0. -1.
       23    1    1    2    0    0  0.00000000000E+00 -0.00000000000E+00 -0.37790592973E+04  0.37801593119E+04  0.91188000000E+02 0.  1.
<scales pt_clust_3="100000.00000"></scales>
<rwgt>
<wgt id='bias'>   0.1000000E+01</wgt>
</rwgt>
<clustering>
<clus scale="   91.188">  2  3  1 -1</clus>
</clustering>
</event>
<event>
 4   2  0.8512900E+003  0.9206008E+02  0.7546771E-02  0.1178330E+00
       -2   -1    0    0    0  501 -0.00000000000E+00  0.00000000000E+00  0.15615962291E+03  0.15615962291E+03  0.00000000000E+00 0. -1.
        2   -1    0    0  502    0  0.00000000000E+00 -0.00000000000E+00 -0.18576965612E+02  0.18576965612E+02  0.00000000000E+00 0.  1.
       23    1    1    2    0    0 -0.59265019950E+01 -0.11166191807E+02  0.13196491385E+03  0.16090306739E+03  0.91188000000E+02 0. -1.
       21    1    1    2  502  501  0.59265019950E+01  0.11166191807E+02  0.56177434500E+01  0.13833521130E+02  0.00000000000E+00 0.  1.
<scales pt_clust_3="100000.00000" pt_clust_4="12.64149"></scales>
<rwgt>
<wgt id='bias'>   0.1000000E+01</wgt>
</rwgt>
<clustering>
<clus scale="   12.641">  2  4  1 -1</clus>
<clus scale="   12.641">  2  3  1 -1</clus>
</clustering>
</event>
<event>
 4   2  0.8512900E+003  0.9199200E+02  0.7546771E-02  0.1178461E+00
        2   -1    0    0  502    0  0.00000000000E+00  0.00000000000E+00  0.49783901977E+04  0.49783901977E+04  0.00000000000E+00 0. -1.
       -2   -1    0    0    0  501 -0.00000000000E+00 -0.00000000000E+00 -0.58353418211E+00  0.58353418211E+00  0.00000000000E+00 0.  1.
       23    1    1    2    0    0  0.10531920333E+02  0.60295649128E+01  0.38373213701E+04  0.38384238726E+04  0.91188000000E+02 0.  1.
       21    1    1    2  502  501 -0.10531920333E+02 -0.60295649128E+01  0.11404852935E+04  0.11405498593E+04  0.00000000000E+00 0. -1.
<scales pt_clust_3="100000.00000" pt_clust_4="12.13577"></scales>
<rwgt>
<wgt id='bias'>   0.1000000E+01</wgt>
</rwgt>
<clustering>
<clus scale="   12.136">  1  4  2 -1</clus>
<clus scale="   12.136">  1  3  2 -1</clus>
</clustering>
</event>
<event>
 4   2  0.8512900E+003  0.9200631E+02  0.7546771E-02  0.1178434E+00
       21   -1    0    0  501  502  0.00000000000E+00  0.00000000000E+00  0.43188171748E+03  0.43188171748E+03  0.00000000000E+00 0. -1.
        4   -1    0    0  502    0 -0.00000000000E+00 -0.00000000000E+00 -0.30184938002E+02  0.30184938002E+02  0.00000000000E+00 0. -1.
       23    1    1    2    0    0  0.19664022119E+00 -0.12242178316E+02  0.40271138158E+02  0.10043368713E+03  0.91188000000E+02 0. -1.
        4    1    1    2  501    0 -0.19664022119E+00  0.12242178316E+02  0.36142564132E+03  0.36163296835E+03  0.00000000000E+00 0. -1.
<scales pt_clust_3="100000.00000" pt_clust_4="12.24376"></scales>
<rwgt>
<wgt id='bias'>   0.1000000E+01</wgt>
</rwgt>
<clustering>
<clus scale="   12.244">  1  4  2 -1</clus>
<clus scale="   12.244">  1  3  2 -1</clus>
</clustering>
</event>
<event>
 4   2  0.8512900E+003  0.1521584E+03  0.7546771E-02  0.1095560E+00
        1   -1    0    0  502    0 -0.00000000000E+00  0.00000000000E+00  0.14357434532E+04  0.14357434532E+04  0.00000000000E+00 0. -1.
       21   -1    0    0  501  502  0.00000000000E+00 -0.00000000000E+00 -0.40313935317E+01  0.40313935317E+01  0.00000000000E+00 0.  1.
       23    1    1    2    0    0 -0.40268133719E+02 -0.24467890447E+02  0.85445801024E+03  0.86060091963E+03  0.91188000000E+02 0.  0.
        1    1    1    2  501    0  0.40268133719E+02  0.24467890447E+02  0.57725404946E+03  0.57917392714E+03  0.00000000000E+00 0. -1.
<scales pt_clust_3="100000.00000" pt_clust_4="100000.00000"></scales>
<rwgt>
<wgt id='bias'>   0.1000000E+01</wgt>
</rwgt>
<clustering>
<clus scale="   47.119">  3  4 -1 -1</clus>
<clus scale="  152.158">  2  3  1 -1</clus>
</clustering>
</event>
<event>
 3   1  0.8512900E+003  0.9118800E+02  0.7546771E-02  0.1180022E+00
        4   -1    0    0  501    0  0.00000000000E+00  0.00000000000E+00  0.69301174204E+01  0.69301174204E+01  0.00000000000E+00 0. -1.
       -4   -1    0    0    0  501 -0.00000000000E+00 -0.00000000000E+00 -0.29996790962E+03  0.29996790962E+03  0.00000000000E+00 0.  1.
       23    1    1    2    0    0  0.00000000000E+00  0.00000000000E+00 -0.29303779220E+03  0.30689802704E+03  0.91188000000E+02 0. -1.
<scales pt_clust_3="100000.00000"></scales>
<rwgt>
<wgt id='bias'>   0.1000000E+01</wgt>
</rwgt>
<clustering>
<clus scale="   91.188">  1  3  2 -1</clus>
</clustering>
</event>
<event>
 4   2  0.8512900E+003  0.9314059E+02  0.7546771E-02  0.1176262E+00
       21   -1    0    0  501  502  0.00000000000E+00  0.00000000000E+00  0.14727124904E+05  0.14727124904E+05  0.00000000000E+00 0.  1.
       -3   -1    0    0    0  501 -0.00000000000E+00 -0.00000000000E+00 -0.42535583792E+00  0.42535583792E+00  0.00000000000E+00 0.  1.
       23    1    1    2    0    0  0.15539332426E+02 -0.10883325580E+02  0.52143224727E+04  0.52151542660E+04  0.91188000000E+02 0.  1.
       -3    1    1    2    0  502 -0.15539332426E+02  0.10883325580E+02  0.95123770755E+04  0.95123959938E+04  0.00000000000E+00 0.  1.
<scales pt_clust_3="100000.00000" pt_clust_4="18.97150"></scales>
<rwgt>
<wgt id='bias'>   0.1000000E+01</wgt>
</rwgt>
<clustering>
<clus scale="   18.971">  1  4  2 -1</clus>
<clus scale="   18.971">  1  3  2 -1</clus>
</clustering>
</event>
<event>
 5   3  0.8512900E+003  0.9308442E+02  0.7546771E-02  0.1176369E+00
        3   -1    0    0  503    0 -0.00000000000E+00  0.00000000000E+00  0.54195908637E+03  0.54195908637E+03  0.00000000000E+00 0. -1.
       21   -1    0    0  501  502  0.00000000000E+00 -0.00000000000E+00 -0.14260068637E+04  0.14260068637E+04  0.00000000000E+00 0.  1.
       23    1    1    2    0    0 -0.19548732046E+02  0.62566116341E+01  0.53285110882E+03  0.54098692556E+03  0.91188000000E+02 0. -1.
       21    1    1    2  503  502  0.47137211572E+01 -0.11516518419E+02 -0.14095554342E+04  0.14096103615E+04  0.00000000000E+00 0.  1.
        3    1    1    2  501    0  0.14835010889E+02  0.52599067847E+01 -0.73434520270E+01  0.17368663021E+02  0.00000000000E+00 0. -1.
<scales pt_clust_3="100000.00000" pt_clust_4="12.44385" pt_clust_5="18.69380"></scales>
<rwgt>
<wgt id='bias'>   0.1000000E+01</wgt>
</rwgt>
<clustering>
<clus scale="   12.444">  2  4  1 -1</clus>
<clus scale="   18.694">  2  5  1 -1</clus>
<clus scale="   12.444">  2  3  1 -1</clus>
</clustering>
</event>
<event>
 3   1  0.8512900E+003  0.9118800E+02  0.7546771E-02  0.1180022E+00
        1   -1    0    0  501    0  0.00000000000E+00  0.00000000000E+00  0.24544516298E+04  0.24544516298E+04  0.00000000000E+00 0. -1.
       -1   -1    0    0    0  501 -0.00000000000E+00 -0.00000000000E+00 -0.84695612282E+00  0.84695612282E+00  0.00000000000E+00 0.  1.
       23    1    1    2    0    0  0.00000000000E+00  0.00000000000E+00  0.24536046737E+04  0.24552985859E+04  0.91188000000E+02 0. -1.
<scales pt_clust_3="100000.00000"></scales>
<rwgt>
<wgt id='bias'>   0.1000000E+01</wgt>
</rwgt>
<clustering>
<clus scale="   91.188">  1  3  2 -1</clus>
</clustering>
</event>
<event>
 3   1  0.8512900E+003  0.9118800E+02  0.7546771E-02  0.1180022E+00
       -2   -1    0    0    0  501 -0.00000000000E+00  0.00000000000E+00  0.38255898903E+03  0.38255898903E+03  0.00000000000E+00 0.  1.
        2   -1    0    0  501    0  0.00000000000E+00 -0.00000000000E+00 -0.54339667754E+01  0.54339667754E+01  0.00000000000E+00 0. -1.
       23    1    1    2    0    0  0.00000000000E+00 -0.00000000000E+00  0.37712502225E+03  0.38799295580E+03  0.91188000000E+02 0.  1.
<scales pt_clust_3="100000.00000"></scales>
<rwgt>
<wgt id='bias'>   0.1000000E+01</wgt>
</rwgt>
<clustering>
<clus scale="   91.188">  2  3  1 -1</clus>
</clustering>
</event>
<event>
 4   2  0.8512900E+003  0.9316622E+02  0.7546771E-02  0.1176214E+00
       21   -1    0    0  501  502  0.00000000000E+00  0.00000000000E+00  0.81556078450E+00  0.81556078450E+00  0.00000000000E+00 0.  1.
        2   -1    0    0  502    0 -0.00000000000E+00 -0.00000000000E+00 -0.50215544178E+04  0.50215544178E+04  0.00000000000E+00 0. -1.
       23    1    1    2    0    0 -0.15435783418E+02  0.11244082789E+02 -0.47681977406E+04  0.47691078450E+04  0.91188000000E+02 0. -1.
        2    1    1    2  501    0  0.15435783418E+02 -0.11244082789E+02 -0.25254111639E+03  0.25326213352E+03  0.00000000000E+00 0. -1.
<scales pt_clust_3="100000.00000" pt_clust_4="19.09693"></scales>
<rwgt>
<wgt id='bias'>   0.1000000E+01</wgt>
</rwgt>
<clustering>
<clus scale="   19.097">  1  4  2 -1</clus>
<clus scale="   19.097">  1  3  2 -1</clus>
</clustering>
</event>
<event>
 3   1  0.8512900E+003  0.9118800E+02  0.7546771E-02  0.1180022E+00
       -2   -1    0    0    0  501 -0.00000000000E+00  0.00000000000E+00  0.10925879850E+03  0.10925879850E+03  0.00000000000E+00 0.  1.
        2   -1    0    0  501    0  0.00000000000E+00 -0.00000000000E+00 -0.19026502804E+02  0.19026502804E+02  0.00000000000E+00 0. -1.
       23    1    1    2    0    0  0.00000000000E+00 -0.00000000000E+00  0.90232295696E+02  0.12828530130E+03  0.91188000000E+02 0.  1.
<scales pt_clust_3="100000.00000"></scales>
<rwgt>
<wgt id='bias'>   0.1000000E+01</wgt>
</rwgt>
<clustering>
<clus scale="   91.188">  2  3  1 -1</clus>
</clustering>
</event>
<event>
 4   2  0.8512900E+003  0.9232476E+02  0.7546771E-02  0.1177821E+00
        3   -1    0    0  502    0  0.00000000000E+00  0.00000000000E+00  0.19761193029E+03  0.19761193029E+03  0.00000000000E+00 0. -1.
       -3   -1    0    0    0  501 -0.00000000000E+00 -0.00000000000E+00 -0.14429205091E+02  0.14429205091E+02  0.00000000000E+00 0.  1.
       23    1    1    2    0    0 -0.11828004899E+02 -0.82890787354E+01  0.15668859513E+03  0.18186582338E+03  0.91188000000E+02 0. -1.
       21    1    1    2  502  501  0.11828004899E+02  0.82890787354E+01  0.26494130070E+02  0.30175312000E+02  0.00000000000E+00 0.  1.
<scales pt_clust_3="100000.00000" pt_clust_4="14.44336"></scales>
<rwgt>
<wgt id='bias'>   0.1000000E+01</wgt>
</rwgt>
<clustering>
<clus scale="   14.443">  1  4  2 -1</clus>
<clus scale="   14.443">  1  3  2 -1</clus>
</clustering>
</event>
<event>
 5   3  0.8512900E+003  0.1379461E+03  0.7546771E-02  0.1110766E+00
       -2   -1    0    0    0  501 -0.00000000000E+00  0.00000000000E+00  0.15737691440E+03  0.15737691440E+03  0.00000000000E+00 0.  1.
       21   -1    0    0  503  502  0.00000000000E+00 -0.00000000000E+00 -0.60684770796E+03  0.60684770796E+03  0.00000000000E+00 0.  1.
       23    1    1    2    0    0 -0.89496354836E+01  0.11914188607E+02  0.13890531255E+03  0.16682919727E+03  0.91188000000E+02 0.  1.
       21    1    1    2  503  501 -0.63104994327E+01 -0.18974892910E+02 -0.57641240474E+03  0.57675916057E+03  0.00000000000E+00 0.  1.
       -2    1    1    2    0  502  0.15260134916E+02  0.70607043037E+01 -0.11963701361E+02  0.20636264516E+02  0.00000000000E+00 0.  1.
<scales pt_clust_3="100000.00000" pt_clust_4="19.99672" pt_clust_5="100000.00000"></scales>
<rwgt>
<wgt id='bias'>   0.1000000E+01</wgt>
</rwgt>
<clustering>
<clus scale="   16.814">  3  5 -1 -1</clus>
<clus scale="   19.997">  2  4  1 -1</clus>
<clus scale="   19.997">  2  3  1 -1</clus>
</clustering>
</event>
<event>
 4   2  0.8512900E+003  0.9184359E+02  0.7546771E-02  0.1178748E+00
       21   -1    0    0  501  502  0.00000000000E+00  0.00000000000E+00  0.22290048906E+02  0.22290048906E+02  0.00000000000E+00 0. -1.
       -3   -1    0    0    0  501 -0.00000000000E+00 -0.00000000000E+00 -0.20258344529E+03  0.20258344529E+03  0.00000000000E+00 0.  1.
       23    1    1    2    0    0 -0.52379720453E+00 -0.10941604543E+02 -0.18948739179E+03  0.21057235351E+03  0.91188000000E+02 0.  1.
       -3    1    1    2    0  502  0.52379720453E+00  0.10941604543E+02  0.91939954005E+01  0.14301140686E+02  0.00000000000E+00 0.  1.
<scales pt_clust_3="100000.00000" pt_clust_4="10.95413"></scales>
<rwgt>
<wgt id='bias'>   0.1000000E+01</wgt>
</rwgt>
<clustering>
<clus scale="   10.954">  1  4  2 -1</clus>
<clus scale="   10.954">  1  3  2 -1</clus>
</clustering>
</event>
<event>
 5   3  0.8512900E+003  0.9486192E+02  0.7546771E-02  0.1173033E+00
        3   -1    0    0  503    0 -0.00000000000E+00  0.00000000000E+00  0.23373832270E+04  0.23373832270E+04  0.00000000000E+00 0. -1.
       21   -1    0    0  501  502  0.00000000000E+00 -0.00000000000E+00 -0.43661743272E+02  0.43661743272E+02  0.00000000000E+00 0. -1.
       23    1    1    2    0    0  0.17542211238E+02  0.18037782447E+02  0.21678929461E+04  0.21699557986E+04  0.91188000000E+02 0. -1.
       21    1    1    2  503  502  0.39812014242E+02 -0.40779987317E+02 -0.13624326394E+02  0.58597151068E+02  0.00000000000E+00 0. -1.
        3    1    1    2  501    0 -0.57354225481E+02  0.22742204870E+02  0.13945286394E+03  0.15249202052E+03  0.00000000000E+00 0. -1.
<scales pt_clust_3="100000.00000" pt_clust_4="56.99126" pt_clust_5="26.14445"></scales>
<rwgt>
<wgt id='bias'>   0.1000000E+01</wgt>
</rwgt>
<clustering>
<clus scale="   56.991">  2  4  1 -1</clus>
<clus scale="   26.144">  2  5  1 -1</clus>
<clus scale="   56.991">  2  3  1 -1</clus>
</clustering>
</event>
<event>
 3   1  0.8512900E+003  0.9118800E+02  0.7546771E-02  0.1180022E+00
        3   -1    0    0  501    0  0.00000000000E+00  0.00000000000E+00  0.22646528229E+02  0.22646528229E+02  0.00000000000E+00 0. -1.
       -3   -1    0    0    0  501 -0.00000000000E+00 -0.00000000000E+00 -0.91793886241E+02  0.91793886241E+02  0.00000000000E+00 0.  1.
       23    1    1    2    0    0  0.00000000000E+00  0.00000000000E+00 -0.69147358013E+02  0.11444041447E+03  0.91188000000E+02 0. -1.
<scales pt_clust_3="100000.00000"></scales>
<rwgt>
<wgt id='bias'>   0.1000000E+01</wgt>
</rwgt>
<clustering>
<clus scale="   91.188">  1  3  2 -1</clus>
</clustering>
</event>
<event>
 3   1  0.8512900E+003  0.9118800E+02  0.7546771E-02  0.1180022E+00
       -2   -1    0    0    0  501 -0.00000000000E+00  0.00000000000E+00  0.13422279875E+01  0.13422279875E+01  0.00000000000E+00 0.  1.
        2   -1    0    0  501    0  0.00000000000E+00 -0.00000000000E+00 -0.15487777452E+04  0.15487777452E+04  0.00000000000E+00 0. -1.
       23    1    1    2    0    0  0.00000000000E+00 -0.00000000000E+00 -0.15474355172E+04  0.15501199732E+04  0.91188000000E+02 0.  1.
<scales pt_clust_3="100000.00000"></scales>
<rwgt>
<wgt id='bias'>   0.1000000E+01</wgt>
</rwgt>
<clustering>
<clus scale="   91.188">  2  3  1 -1</clus>
</clustering>
</event>
<event>
 5   3  0.8512900E+003  0.9289896E+02  0.7546771E-02  0.1176722E+00
        1   -1    0    0  502    0 -0.00000000000E+00  0.00000000000E+00  0.47706732856E+03  0.47706732856E+03  0.00000000000E+00 0. -1.
       21   -1    0    0  503  502  0.00000000000E+00 -0.00000000000E+00 -0.11244580870E+03  0.11244580870E+03  0.00000000000E+00 0.  1.
       23    1    1    2    0    0 -0.11213355356E+02 -0.78683752078E+01  0.42797972946E+03  0.43780081183E+03  0.91188000000E+02 0. -1.
       21    1    1    2  503  501  0.66373657819E+01 -0.13012637292E+02 -0.10441077486E+03  0.10542766838E+03  0.00000000000E+00 0.  1.
        1    1    1    2  501    0  0.45759895736E+01  0.20881012499E+02  0.41052565254E+02  0.46284657042E+02  0.00000000000E+00 0. -1.
<scales pt_clust_3="100000.00000" pt_clust_4="14.60765" pt_clust_5="17.74724"></scales>
<rwgt>
<wgt id='bias'>   0.1000000E+01</wgt>
</rwgt>
<clustering>
<clus scale="   14.608">  2  4  1 -1</clus>
<clus scale="   17.747">  2  5  1 -1</clus>
<clus scale="   14.608">  2  3  1 -1</clus>
</clustering>
</event>
<event>
 4   2  0.8512900E+003  0.9179454E+02  0.7546771E-02  0.1178843E+00
       21   -1    0    0  501  502  0.00000000000E+00  0.00000000000E+00  0.14885583431E+03  0.14885583431E+03  0.00000000000E+00 0.  1.
        3   -1    0    0  502    0 -0.00000000000E+00 -0.00000000000E+00 -0.19040009396E+02  0.19040009396E+02  0.00000000000E+00 0. -1.
       23    1    1    2    0    0 -0.10446102100E+02  0.13657610233E+01  0.97527330162E+02  0.13393213888E+03  0.91188000000E+02 0. -1.
        3    1    1    2  501    0  0.10446102100E+02 -0.13657610233E+01  0.32288494750E+02  0.33963704825E+02  0.00000000000E+00 0. -1.
<scales pt_clust_3="100000.00000" pt_clust_4="10.53501"></scales>
<rwgt>
<wgt id='bias'>   0.1000000E+01</wgt>
</rwgt>
<clustering>
<clus scale="   10.535">  1  4  2 -1</clus>
<clus scale="   10.535">  1  3  2 -1</clus>
</clustering>
</event>
<event>
 4   2  0.8512900E+003  0.9185795E+02  0.7546771E-02  0.1178720E+00
       -3   -1    0    0    0  501 -0.00000000000E+00  0.00000000000E+00  0.19727256693E+03  0.19727256693E+03  0.00000000000E+00 0.  1.
       21   -1    0    0  501  502  0.00000000000E+00 -0.00000000000E+00 -0.23038456050E+03  0.23038456050E+03  0.00000000000E+00 0.  1.
       23    1    1    2    0    0 -0.30466855269E+00 -0.11069755246E+02  0.18643226228E+03  0.20783376065E+03  0.91188000000E+02 0.  1.
       -3    1    1    2    0  502  0.30466855269E+00  0.11069755246E+02 -0.21954425585E+03  0.21982336678E+03  0.00000000000E+00 0.  1.
<scales pt_clust_3="100000.00000" pt_clust_4="11.07395"></scales>
<rwgt>
<wgt id='bias'>   0.1000000E+01</wgt>
</rwgt>
<clustering>
<clus scale="   11.074">  2  4  1 -1</clus>
<clus scale="   11.074">  2  3  1 -1</clus>
</clustering>
</event>
<event>
 3   1  0.8512900E+003  0.9118800E+02  0.7546771E-02  0.1180022E+00
        3   -1    0    0  501    0  0.00000000000E+00  0.00000000000E+00  0.11657722412E+00  0.11657722412E+00  0.00000000000E+00 0. -1.
       -3   -1    0    0    0  501 -0.00000000000E+00 -0.00000000000E+00 -0.17832066698E+05  0.17832066698E+05  0.00000000000E+00 0.  1.
       23    1    1    2    0    0  0.00000000000E+00  0.00000000000E+00 -0.17831950121E+05  0.17832183275E+05  0.91188000000E+02 0. -1.
<scales pt_clust_3="100000.00000"></scales>
<rwgt>
<wgt id='bias'>   0.1000000E+01</wgt>
</rwgt>
<clustering>
<clus scale="   91.188">  1  3  2 -1</clus>
</clustering>
</event>
<event>
 5   3  0.8512900E+003  0.1133774E+03  0.7546771E-02  0.1142524E+00
       21   -1    0    0  501  502  0.00000000000E+00  0.00000000000E+00  0.82362966005E+03  0.82362966005E+03  0.00000000000E+00 0.  1.
        1   -1    0    0  503    0 -0.00000000000E+00 -0.00000000000E+00 -0.12682524510E+02  0.12682524510E+02  0.00000000000E+00 0. -1.
       23    1    1    2    0    0 -0.69467378648E+02 -0.51945887997E+01  0.33915263868E+03  0.35803975215E+03  0.91188000000E+02 0.  0.
       21    1    1    2  503  502  0.63376733862E+02  0.13472549650E+02  0.44269516907E+03  0.44741159206E+03  0.00000000000E+00 0.  1.
        1    1    1    2  501    0  0.60906447857E+01 -0.82779608499E+01  0.29099327787E+02  0.30860840355E+02  0.00000000000E+00 0. -1.
<scales pt_clust_3="100000.00000" pt_clust_4="67.37338" pt_clust_5="10.27719"></scales>
<rwgt>
<wgt id='bias'>   0.1000000E+01</wgt>
</rwgt>
<clustering>
<clus scale="   10.277">  1  5  2 -1</clus>
<clus scale="   67.373">  1  4  2 -1</clus>
<clus scale="   10.277">  1  3  2 -1</clus>
</clustering>
</event>
<event>
 4   2  0.8512900E+003  0.9214848E+02  0.7546771E-02  0.1178160E+00
       21   -1    0    0  501  502  0.00000000000E+00  0.00000000000E+00  0.40354034207E+01  0.40354034207E+01  0.00000000000E+00 0.  1.
        3   -1    0    0  502    0 -0.00000000000E+00 -0.00000000000E+00 -0.68882055133E+03  0.68882055133E+03  0.00000000000E+00 0. -1.
       23    1    1    2    0    0  0.55414995404E+01  0.12057455191E+02 -0.60363319758E+03  0.61062621874E+03  0.91188000000E+02 0.  0.
        3    1    1    2  501    0 -0.55414995404E+01 -0.12057455191E+02 -0.81151950327E+02  0.82229736012E+02  0.00000000000E+00 0. -1.
<scales pt_clust_3="100000.00000" pt_clust_4="13.26991"></scales>
<rwgt>
<wgt id='bias'>   0.1000000E+01</wgt>
</rwgt>
<clustering>
<clus scale="   13.270">  1  4  2 -1</clus>
<clus scale="   13.270">  1  3  2 -1</clus>
</clustering>
</event>
<event>
 3   1  0.8512900E+003  0.9118800E+02  0.7546771E-02  0.1180022E+00
        2   -1    0    0  501    0  0.00000000000E+00  0.00000000000E+00  0.18199110917E+04  0.18199110917E+04  0.00000000000E+00 0. -1.
       -2   -1    0    0    0  501 -0.00000000000E+00 -0.00000000000E+00 -0.11422606552E+01  0.11422606552E+01  0.00000000000E+00 0.  1.
       23    1    1    2    0    0  0.00000000000E+00  0.00000000000E+00  0.18187688310E+04  0.18210533523E+04  0.91188000000E+02 0. -1.
<scales pt_clust_3="100000.00000"></scales>
<rwgt>
<wgt id='bias'>   0.1000000E+01</wgt>
</rwgt>
<clustering>
<clus scale="   91.188">  1  3  2 -1</clus>
</clustering>
</event>
<event>
 5   3  0.8512900E+003  0.9716461E+02  0.7546771E-02  0.1168832E+00
       -2   -1    0    0    0  501 -0.00000000000E+00  0.00000000000E+00  0.47942686288E+03  0.47942686288E+03  0.00000000000E+00 0.  1.
        2   -1    0    0  502    0  0.00000000000E+00 -0.00000000000E+00 -0.11528612485E+02  0.11528612485E+02  0.00000000000E+00 0. -1.
       23    1    1    2    0    0 -0.30641633623E+02  0.13667516896E+02  0.41777425964E+03  0.42892457856E+03  0.91188000000E+02 0.  1.
        1    1    1    2  502    0  0.20475507394E+02 -0.85534685119E+01  0.20167142127E+02  0.29985360565E+02  0.00000000000E+00 0. -1.
       -1    1    1    2    0  501  0.10166126229E+02 -0.51140483841E+01  0.29956848630E+02  0.32045536245E+02  0.00000000000E+00 0.  1.
<scales pt_clust_3="100000.00000" pt_clust_4="36.54337" pt_clust_5="36.54337"></scales>
<rwgt>
<wgt id='bias'>   0.1000000E+01</wgt>
</rwgt>
<clustering>
<clus scale="   10.370">  4  5 -1 -1</clus>
<clus scale="   36.543">  2  4  1 -1</clus>
<clus scale="   36.543">  2  3  1 -1</clus>
</clustering>
</event>
<event>
 3   1  0.8512900E+003  0.9118800E+02  0.7546771E-02  0.1180022E+00
        5   -1    0    0  501    0  0.00000000000E+00  0.00000000000E+00  0.16385862643E+02  0.16385862643E+02  0.00000000000E+00 0. -1.
       -5   -1    0    0    0  501 -0.00000000000E+00 -0.00000000000E+00 -0.12686624325E+03  0.12686624325E+03  0.00000000000E+00 0.  1.
       23    1    1    2    0    0  0.00000000000E+00  0.00000000000E+00 -0.11048038061E+03  0.14325210590E+03  0.91188000000E+02 0. -1.
<scales pt_clust_3="100000.00000"></scales>
<rwgt>
<wgt id='bias'>   0.1000000E+01</wgt>
</rwgt>
<clustering>
<clus scale="   91.188">  1  3  2 -1</clus>
</clustering>
</event>
<event>
 4   2  0.8512900E+003  0.9209158E+02  0.7546771E-02  0.1178269E+00
       21   -1    0    0  501  502  0.00000000000E+00  0.00000000000E+00  0.74136169326E+03  0.74136169326E+03  0.00000000000E+00 0.  1.
        2   -1    0    0  502    0 -0.00000000000E+00 -0.00000000000E+00 -0.10797006740E+02  0.10797006740E+02  0.00000000000E+00 0.  1.
       23    1    1    2    0    0 -0.55911644283E+01 -0.11590812574E+02  0.18704483065E+03  0.20848651772E+03  0.91188000000E+02 0.  1.
        2    1    1    2  501    0  0.55911644283E+01  0.11590812574E+02  0.54351985588E+03  0.54367218228E+03  0.00000000000E+00 0.  1.
<scales pt_clust_3="100000.00000" pt_clust_4="12.86888"></scales>
<rwgt>
<wgt id='bias'>   0.1000000E+01</wgt>
</rwgt>
<clustering>
<clus scale="   12.869">  1  4  2 -1</clus>
<clus scale="   12.869">  1  3  2 -1</clus>
</clustering>
</event>
<event>
 4   2  0.8512900E+003  0.2236778E+03  0.7546771E-02  0.1039685E+00
       -3   -1    0    0    0  501 -0.00000000000E+00  0.00000000000E+00  0.12368306690E+03  0.12368306690E+03  0.00000000000E+00 0.  1.
       21   -1    0    0  501  502  0.00000000000E+00 -0.00000000000E+00 -0.10112892724E+03  0.10112892724E+03  0.00000000000E+00 0.  1.
       23    1    1    2    0    0 -0.65029552977E+02 -0.66039085506E+02  0.28130324235E+01  0.13005063656E+03  0.91188000000E+02 0.  1.
       -3    1    1    2    0  502  0.65029552977E+02  0.66039085506E+02  0.19741107243E+02  0.94761357578E+02  0.00000000000E+00 0.  1.
<scales pt_clust_3="100000.00000" pt_clust_4="100000.00000"></scales>
<rwgt>
<wgt id='bias'>   0.1000000E+01</wgt>
</rwgt>
<clustering>
<clus scale="   92.682">  3  4 -1 -1</clus>
<clus scale="  223.678">  2  3  1 -1</clus>
</clustering>
</event>
<event>
 3   1  0.8512900E+003  0.9118800E+02  0.7546771E-02  0.1180022E+00
       -1   -1    0    0    0  501 -0.00000000000E+00  0.00000000000E+00  0.24654150180E+02  0.24654150180E+02  0.00000000000E+00 0.  1.
        1   -1    0    0  501    0  0.00000000000E+00 -0.00000000000E+00 -0.84318981626E+02  0.84318981626E+02  0.00000000000E+00 0. -1.
       23    1    1    2    0    0  0.00000000000E+00 -0.00000000000E+00 -0.59664831446E+02  0.10897313181E+03  0.91188000000E+02 0.  1.
<scales pt_clust_3="100000.00000"></scales>
<rwgt>
<wgt id='bias'>   0.1000000E+01</wgt>
</rwgt>
<clustering>
<clus scale="   91.188">  2  3  1 -1</clus>
</clustering>
</event>
<event>
 4   2  0.8512900E+003  0.9213019E+02  0.7546771E-02  0.1178195E+00
        1   -1    0    0  502    0  0.00000000000E+00  0.00000000000E+00  0.11924090726E+05  0.11924090726E+05  0.00000000000E+00 0. -1.
       -1   -1    0    0    0  501 -0.00000000000E+00 -0.00000000000E+00 -0.37515288806E+00  0.37515288806E+00  0.00000000000E+00 0.  1.
       23    1    1    2    0    0 -0.12524537177E+02 -0.39819778166E+01  0.57636739592E+04  0.57644102456E+04  0.91188000000E+02 0.  1.
       21    1    1    2  502  501  0.12524537177E+02  0.39819778166E+01  0.61600416137E+04  0.61600556331E+04  0.00000000000E+00 0. -1.
<scales pt_clust_3="100000.00000" pt_clust_4="13.14230"></scales>
<rwgt>
<wgt id='bias'>   0.1000000E+01</wgt>
</rwgt>
<clustering>
<clus scale="   13.142">  1  4  2 -1</clus>
<clus scale="   13.142">  1  3  2 -1</clus>
</clustering>
</event>
<event>
 5   3  0.8512900E+003  0.9279583E+02  0.7546771E-02  0.1176919E+00
       21   -1    0    0  501  502  0.00000000000E+00  0.00000000000E+00  0.20836998461E+03  0.20836998461E+03  0.00000000000E+00 0.  1.
        3   -1    0    0  503    0 -0.00000000000E+00 -0.00000000000E+00 -0.19817820493E+02  0.19817820493E+02  0.00000000000E+00 0. -1.
       23    1    1    2    0    0 -0.42870131433E+01  0.15356582135E+02  0.13662931035E+03  0.16503642897E+03  0.91188000000E+02 0.  1.
       21    1    1    2  503  502  0.13967982849E+02 -0.24201356859E+00  0.37841571003E+02  0.40337917787E+02  0.00000000000E+00 0.  1.
        3    1    1    2  501    0 -0.96809697058E+01 -0.15114568566E+02  0.14081282762E+02  0.22813458344E+02  0.00000000000E+00 0. -1.
<scales pt_clust_3="100000.00000" pt_clust_4="13.97008" pt_clust_5="17.19926"></scales>
<rwgt>
<wgt id='bias'>   0.1000000E+01</wgt>
</rwgt>
<clustering>
<clus scale="   13.970">  1  4  2 -1</clus>
<clus scale="   17.199">  1  5  2 -1</clus>
<clus scale="   13.970">  1  3  2 -1</clus>
</clustering>
</event>
<event>
 5   3  0.8512900E+003  0.3157809E+02  0.7546771E-02  0.1170029E+00
       21   -1    0    0  503  502  0.00000000000E+00  0.00000000000E+00  0.45029348441E+03  0.45029348441E+03  0.00000000000E+00 0. -1.
       21   -1    0    0  501  503 -0.00000000000E+00 -0.00000000000E+00 -0.14766617297E+03  0.14766617297E+03  0.00000000000E+00 0. -1.
       23    1    1    2    0    0  0.11787649657E+02  0.16253015067E+02  0.22271770608E+03  0.24149852407E+03  0.91188000000E+02 0. -1.
        5    1    1    2  501    0 -0.25894696898E+02  0.15415338448E+02 -0.13522947196E+03  0.13854666388E+03  0.00000000000E+00 0. -1.
       -5    1    1    2    0  502  0.14107047241E+02 -0.31668353515E+02  0.21513907732E+03  0.21791446943E+03  0.00000000000E+00 0.  1.
<scales pt_clust_3="100000.00000" pt_clust_4="30.13583" pt_clust_5="31.57809"></scales>
<rwgt>
<wgt id='bias'>   0.1000000E+01</wgt>
</rwgt>
<clustering>
<clus scale="   30.136">  2  4  1 -1</clus>
<clus scale="   31.578">  1  5  2 -1</clus>
<clus scale="   31.578">  1  3  2 -1</clus>
</clustering>
</event>
<event>
 3   1  0.8512900E+003  0.9118800E+02  0.7546771E-02  0.1180022E+00
       -1   -1    0    0    0  501 -0.00000000000E+00  0.00000000000E+00  0.10336611474E+02  0.10336611474E+02  0.00000000000E+00 0.  1.
        1   -1    0    0  501    0  0.00000000000E+00 -0.00000000000E+00 -0.20111163521E+03  0.20111163521E+03  0.00000000000E+00 0. -1.
       23    1    1    2    0    0  0.00000000000E+00 -0.00000000000E+00 -0.19077502374E+03  0.21144824668E+03  0.91188000000E+02 0.  1.
<scales pt_clust_3="100000.00000"></scales>
<rwgt>
<wgt id='bias'>   0.1000000E+01</wgt>
</rwgt>
<clustering>
<clus scale="   91.188">  2  3  1 -1</clus>
</clustering>
</event>
<event>
 3   1  0.8512900E+003  0.9118800E+02  0.7546771E-02  0.1180022E+00
        5   -1    0    0  501    0  0.00000000000E+00  0.00000000000E+00  0.87688654416E+03  0.87688654416E+03  0.00000000000E+00 0. -1.
       -5   -1    0    0    0  501 -0.00000000000E+00 -0.00000000000E+00 -0.23706748038E+01  0.23706748038E+01  0.00000000000E+00 0.  1.
       23    1    1    2    0    0  0.00000000000E+00  0.00000000000E+00  0.87451586935E+03  0.87925721896E+03  0.91188000000E+02 0. -1.
<scales pt_clust_3="100000.00000"></scales>
<rwgt>
<wgt id='bias'>   0.1000000E+01</wgt>
</rwgt>
<clustering>
<clus scale="   91.188">  1  3  2 -1</clus>
</clustering>
</event>
<event>
 5   3  0.8512900E+003  0.2116789E+02  0.7546771E-02  0.1175369E+00
        2   -1    0    0  503    0 -0.00000000000E+00  0.00000000000E+00  0.24576057439E+04  0.24576057439E+04  0.00000000000E+00 0. -1.
       21   -1    0    0  501  502  0.00000000000E+00 -0.00000000000E+00 -0.39185070731E+01  0.39185070731E+01  0.00000000000E+00 0. -1.
       23    1    1    2    0    0 -0.66982904301E+01  0.15502968560E+02  0.18850727072E+04  0.18873525298E+04  0.91188000000E+02 0. -1.
       21    1    1    2  503  502  0.18535037806E+02 -0.12706808924E+02  0.55667450475E+03  0.55712791607E+03  0.00000000000E+00 0. -1.
        2    1    1    2  501    0 -0.11836747376E+02 -0.27961596357E+01  0.11940024885E+02  0.17043805074E+02  0.00000000000E+00 0. -1.
<scales pt_clust_3="100000.00000" pt_clust_4="21.16789" pt_clust_5="12.16253"></scales>
<rwgt>
<wgt id='bias'>   0.1000000E+01</wgt>
</rwgt>
<clustering>
<clus scale="   12.163">  2  5  1 -1</clus>
<clus scale="   21.168">  1  4  2 -1</clus>
<clus scale="   12.163">  2  3  1 -1</clus>
</clustering>
</event>
<event>
 3   1  0.8512900E+003  0.9118800E+02  0.7546771E-02  0.1180022E+00
       -2   -1    0    0    0  501 -0.00000000000E+00  0.00000000000E+00  0.21022728183E+02  0.21022728183E+02  0.00000000000E+00 0.  1.
        2   -1    0    0  501    0  0.00000000000E+00 -0.00000000000E+00 -0.98884065754E+02  0.98884065754E+02  0.00000000000E+00 0. -1.
       23    1    1    2    0    0  0.00000000000E+00 -0.00000000000E+00 -0.77861337571E+02  0.11990679394E+03  0.91188000000E+02 0.  1.
<scales pt_clust_3="100000.00000"></scales>
<rwgt>
<wgt id='bias'>   0.1000000E+01</wgt>
</rwgt>
<clustering>
<clus scale="   91.188">  2  3  1 -1</clus>
</clustering>
</event>
<event>
 5   3  0.8512900E+003  0.1828632E+03  0.7546771E-02  0.1068156E+00
        2   -1    0    0  503    0 -0.00000000000E+00  0.00000000000E+00  0.18775422928E+05  0.18775422928E+05  0.00000000000E+00 0. -1.
       21   -1    0    0  501  502  0.00000000000E+00 -0.00000000000E+00 -0.11331430007E+01  0.11331430007E+01  0.00000000000E+00 0. -1.
       23    1    1    2    0    0  0.58574644257E+02  0.43676321283E+02  0.13723153347E+05  0.13723650813E+05  0.91188000000E+02 0. -1.
       21    1    1    2  503  502  0.23308740099E+01 -0.44102413803E+02  0.72718024829E+03  0.72852012284E+03  0.00000000000E+00 0. -1.
        2    1    1    2  501    0 -0.60905518267E+02  0.42609252047E+00  0.43239561898E+04  0.43243851349E+04  0.00000000000E+00 0. -1.
<scales pt_clust_3="100000.00000" pt_clust_4="44.16397" pt_clust_5="100000.00000"></scales>
<rwgt>
<wgt id='bias'>   0.1000000E+01</wgt>
</rwgt>
<clustering>
<clus scale="   44.164">  2  4  1 -1</clus>
<clus scale="   63.079">  3  5 -1 -1</clus>
<clus scale="   44.164">  2  3  1 -1</clus>
</clustering>
</event>
<event>
 5   3  0.8512900E+003  0.1799219E+03  0.7546771E-02  0.1070516E+00
       21   -1    0    0  503  502  0.00000000000E+00  0.00000000000E+00  0.68609309637E+03  0.68609309637E+03  0.00000000000E+00 0. -1.
       21   -1    0    0  501  503 -0.00000000000E+00 -0.00000000000E+00 -0.14133505057E+02  0.14133505057E+02  0.00000000000E+00 0.  1.
       23    1    1    2    0    0 -0.64824115437E+02 -0.25970549985E+02  0.42765114869E+03  0.44280626884E+03  0.91188000000E+02 0.  1.
        2    1    1    2  501    0  0.52910688402E+02  0.36981230576E+02  0.20399899655E+03  0.21396902336E+03  0.00000000000E+00 0. -1.
       -2    1    1    2    0  502  0.11913427036E+02 -0.11010680591E+02  0.40309446074E+02  0.43451309227E+02  0.00000000000E+00 0.  1.
<scales pt_clust_3="100000.00000" pt_clust_4="100000.00000" pt_clust_5="16.22236"></scales>
<rwgt>
<wgt id='bias'>   0.1000000E+01</wgt>
</rwgt>
<clustering>
<clus scale="   16.222">  1  5  2 -1</clus>
<clus scale="   65.876">  3  4 -1 -1</clus>
<clus scale="   16.222">  1  3  2 -1</clus>
</clustering>
</event>
<event>
 5   3  0.8512900E+003  0.2227998E+03  0.7546771E-02  0.1040226E+00
       21   -1    0    0  503  502  0.00000000000E+00  0.00000000000E+00  0.93515024719E+01  0.93515024719E+01  0.00000000000E+00 0. -1.
        2   -1    0    0  502    0 -0.00000000000E+00 -0.00000000000E+00 -0.21351372009E+04  0.21351372009E+04  0.00000000000E+00 0. -1.
       23    1    1    2    0    0  0.15272898369E+02  0.14623481576E+02 -0.20824580760E+04  0.20845608644E+04  0.91188000000E+02 0. -1.
       21    1    1    2  503  501  0.66036205592E+01 -0.17923141329E+02 -0.22843762785E+02  0.29777244630E+02  0.00000000000E+00 0. -1.
        2    1    1    2  501    0 -0.21876518928E+02  0.32996597537E+01 -0.20483859647E+02  0.30150594372E+02  0.00000000000E+00 0. -1.
<scales pt_clust_3="100000.00000" pt_clust_4="19.10096" pt_clust_5="100000.00000"></scales>
<rwgt>
<wgt id='bias'>   0.1000000E+01</wgt>
</rwgt>
<clustering>
<clus scale="   19.101">  1  4  2 -1</clus>
<clus scale="   20.028">  3  5 -1 -1</clus>
<clus scale="   19.101">  1  3  2 -1</clus>
</clustering>
</event>
<event>
 5   3  0.8512900E+003  0.9866690E+02  0.7546771E-02  0.1166161E+00
       21   -1    0    0  503  502  0.00000000000E+00  0.00000000000E+00  0.35579220827E+03  0.35579220827E+03  0.00000000000E+00 0.  1.
        2   -1    0    0  502    0 -0.00000000000E+00 -0.00000000000E+00 -0.79003491787E+02  0.79003491787E+02  0.00000000000E+00 0. -1.
       23    1    1    2    0    0  0.32532048613E+02  0.14508855902E+02  0.35143784584E+02  0.10401527785E+03  0.91188000000E+02 0. -1.
       21    1    1    2  503  501  0.53499596368E+01 -0.10392538683E+02  0.27792246749E+03  0.27816815933E+03  0.00000000000E+00 0.  1.
        2    1    1    2  501    0 -0.37882008250E+02 -0.41163172185E+01 -0.36277535594E+02  0.52612262879E+02  0.00000000000E+00 0. -1.
<scales pt_clust_3="100000.00000" pt_clust_4="11.68875" pt_clust_5="37.68165"></scales>
<rwgt>
<wgt id='bias'>   0.1000000E+01</wgt>
</rwgt>
<clustering>
<clus scale="   11.689">  1  4  2 -1</clus>
<clus scale="   37.682">  1  5  2 -1</clus>
<clus scale="   11.689">  1  3  2 -1</clus>
</clustering>
</event>
<event>
 4   2  0.8512900E+003  0.9506621E+02  0.7546771E-02  0.1172655E+00
       21   -1    0    0  501  502  0.00000000000E+00  0.00000000000E+00  0.58847446186E+03  0.58847446186E+03  0.00000000000E+00 0. -1.
        1   -1    0    0  502    0 -0.00000000000E+00 -0.00000000000E+00 -0.17896189219E+02  0.17896189219E+02  0.00000000000E+00 0. -1.
       23    1    1    2    0    0  0.26776124844E+02 -0.23176534009E+01  0.11158241335E+03  0.14658860355E+03  0.91188000000E+02 0. -1.
        1    1    1    2  501    0 -0.26776124844E+02  0.23176534009E+01  0.45899585930E+03  0.45978204753E+03  0.00000000000E+00 0. -1.
<scales pt_clust_3="100000.00000" pt_clust_4="26.87624"></scales>
<rwgt>
<wgt id='bias'>   0.1000000E+01</wgt>
</rwgt>
<clustering>
<clus scale="   26.876">  1  4  2 -1</clus>
<clus scale="   26.876">  1  3  2 -1</clus>
</clustering>
</event>
<event>
 3   1  0.8512900E+003  0.9118800E+02  0.7546771E-02  0.1180022E+00
        3   -1    0    0  501    0  0.00000000000E+00  0.00000000000E+00  0.28592573213E+03  0.28592573213E+03  0.00000000000E+00 0. -1.
       -3   -1    0    0    0  501 -0.00000000000E+00 -0.00000000000E+00 -0.72704643282E+01  0.72704643282E+01  0.00000000000E+00 0.  1.
       23    1    1    2    0    0  0.00000000000E+00  0.00000000000E+00  0.27865526781E+03  0.29319619646E+03  0.91188000000E+02 0. -1.
<scales pt_clust_3="100000.00000"></scales>
<rwgt>
<wgt id='bias'>   0.1000000E+01</wgt>
</rwgt>
<clustering>
<clus scale="   91.188">  1  3  2 -1</clus>
</clustering>
</event>
<event>
 4   2  0.8512900E+003  0.9514900E+02  0.7546771E-02  0.1172502E+00
        1   -1    0    0  502    0  0.00000000000E+00  0.00000000000E+00  0.24592389821E+04  0.24592389821E+04  0.00000000000E+00 0. -1.
       -1   -1    0    0    0  501 -0.00000000000E+00 -0.00000000000E+00 -0.20800376074E+01  0.20800376074E+01  0.00000000000E+00 0.  1.
       23    1    1    2    0    0  0.24082618064E+02 -0.12574118756E+02  0.11664823902E+04  0.11703565691E+04  0.91188000000E+02 0.  1.
       21    1    1    2  502  501 -0.24082618064E+02  0.12574118756E+02  0.12906765543E+04  0.12909624506E+04  0.00000000000E+00 0. -1.
<scales pt_clust_3="100000.00000" pt_clust_4="27.16765"></scales>
<rwgt>
<wgt id='bias'>   0.1000000E+01</wgt>
</rwgt>
<clustering>
<clus scale="   27.168">  1  4  2 -1</clus>
<clus scale="   27.168">  1  3  2 -1</clus>
</clustering>
</event>
<event>
 3   1  0.8512900E+003  0.9118800E+02  0.7546771E-02  0.1180022E+00
        1   -1    0    0  501    0  0.00000000000E+00  0.00000000000E+00  0.66895665874E+02  0.66895665874E+02  0.00000000000E+00 0. -1.
       -1   -1    0    0    0  501 -0.00000000000E+00 -0.00000000000E+00 -0.31075448743E+02  0.31075448743E+02  0.00000000000E+00 0.  1.
       23    1    1    2    0    0  0.00000000000E+00  0.00000000000E+00  0.35820217131E+02  0.97971114617E+02  0.91188000000E+02 0. -1.
<scales pt_clust_3="100000.00000"></scales>
<rwgt>
<wgt id='bias'>   0.1000000E+01</wgt>
</rwgt>
<clustering>
<clus scale="   91.188">  1  3  2 -1</clus>
</clustering>
</event>
<event>
 5   3  0.8512900E+003  0.2452751E+02  0.7546771E-02  0.1173838E+00
       21   -1    0    0  501  502  0.00000000000E+00  0.00000000000E+00  0.11509234461E+04  0.11509234461E+04  0.00000000000E+00 0.  1.
       21   -1    0    0  502  503 -0.00000000000E+00 -0.00000000000E+00 -0.34090569366E+02  0.34090569366E+02  0.00000000000E+00 0.  1.
       23    1    1    2    0    0  0.56669656403E+01 -0.24686955478E+02  0.63850475744E+03  0.64548054726E+03  0.91188000000E+02 0.  1.
        3    1    1    2  501    0 -0.18821494821E+02  0.16232735799E+02  0.50660854416E+03  0.50721786975E+03  0.00000000000E+00 0. -1.
       -3    1    1    2    0  503  0.13154529180E+02  0.84542196789E+01 -0.28280424905E+02  0.32315598418E+02  0.00000000000E+00 0.  1.
<scales pt_clust_3="100000.00000" pt_clust_4="24.52751" pt_clust_5="15.63699"></scales>
<rwgt>
<wgt id='bias'>   0.1000000E+01</wgt>
</rwgt>
<clustering>
<clus scale="   15.637">  2  5  1 -1</clus>
<clus scale="   24.528">  1  4  2 -1</clus>
<clus scale="   24.528">  1  3  2 -1</clus>
</clustering>
</event>
<event>
 3   1  0.8512900E+003  0.9118800E+02  0.7546771E-02  0.1180022E+00
       -1   -1    0    0    0  501 -0.00000000000E+00  0.00000000000E+00  0.64743714366E+00  0.64743714366E+00  0.00000000000E+00 0.  1.
        1   -1    0    0  501    0  0.00000000000E+00 -0.00000000000E+00 -0.32108334475E+04  0.32108334475E+04  0.00000000000E+00 0. -1.
       23    1    1    2    0    0  0.00000000000E+00 -0.00000000000E+00 -0.32101860103E+04  0.32114808846E+04  0.91188000000E+02 0.  1.
<scales pt_clust_3="100000.00000"></scales>
<rwgt>
<wgt id='bias'>   0.1000000E+01</wgt>
</rwgt>
<clustering>
<clus scale="   91.188">  2  3  1 -1</clus>
</clustering>
</event>
<event>
 3   1  0.8512900E+003  0.9118800E+02  0.7546771E-02  0.1180022E+00
       -5   -1    0    0    0  501 -0.00000000000E+00  0.00000000000E+00  0.75131883279E+02  0.75131883279E+02  0.00000000000E+00 0.  1.
        5   -1    0    0  501    0  0.00000000000E+00 -0.00000000000E+00 -0.27668850364E+02  0.27668850364E+02  0.00000000000E+00 0. -1.
       23    1    1    2    0    0  0.00000000000E+00 -0.00000000000E+00  0.47463032915E+02  0.10280073364E+03  0.91188000000E+02 0.  1.
<scales pt_clust_3="100000.00000"></scales>
<rwgt>
<wgt id='bias'>   0.1000000E+01</wgt>
</rwgt>
<clustering>
<clus scale="   91.188">  2  3  1 -1</clus>
</clustering>
</event>
<event>
 4   2  0.8512900E+003  0.1345765E+03  0.7546771E-02  0.1114669E+00
       21   -1    0    0  501  502  0.00000000000E+00  0.00000000000E+00  0.44769584151E+00  0.44769584151E+00  0.00000000000E+00 0.  1.
       -3   -1    0    0    0  501 -0.00000000000E+00 -0.00000000000E+00 -0.10113365117E+05  0.10113365117E+05  0.00000000000E+00 0.  1.
       23    1    1    2    0    0  0.13572332049E+02  0.73554230725E+01 -0.49011555341E+04  0.49020280631E+04  0.91188000000E+02 0.  1.
       -3    1    1    2    0  502 -0.13572332049E+02 -0.73554230725E+01 -0.52117618867E+04  0.52117847494E+04  0.00000000000E+00 0.  1.
<scales pt_clust_3="100000.00000" pt_clust_4="100000.00000"></scales>
<rwgt>
<wgt id='bias'>   0.1000000E+01</wgt>
</rwgt>
<clustering>
<clus scale="   15.437">  3  4 -1 -1</clus>
<clus scale="  134.577">  1  3  2 -1</clus>
</clustering>
</event>
<event>
 3   1  0.8512900E+003  0.9118800E+02  0.7546771E-02  0.1180022E+00
        2   -1    0    0  501    0  0.00000000000E+00  0.00000000000E+00  0.19932841609E+01  0.19932841609E+01  0.00000000000E+00 0. -1.
       -2   -1    0    0    0  501 -0.00000000000E+00 -0.00000000000E+00 -0.10429084206E+04  0.10429084206E+04  0.00000000000E+00 0.  1.
       23    1    1    2    0    0  0.00000000000E+00  0.00000000000E+00 -0.10409151364E+04  0.10449017047E+04  0.91188000000E+02 0. -1.
<scales pt_clust_3="100000.00000"></scales>
<rwgt>
<wgt id='bias'>   0.1000000E+01</wgt>
</rwgt>
<clustering>
<clus scale="   91.188">  1  3  2 -1</clus>
</clustering>
</event>
<event>
 4   2  0.8512900E+003  0.9214013E+02  0.7546771E-02  0.1178176E+00
        3   -1    0    0  502    0  0.00000000000E+00  0.00000000000E+00  0.33470998524E+03  0.33470998524E+03  0.00000000000E+00 0. -1.
       -3   -1    0    0    0  501 -0.00000000000E+00 -0.00000000000E+00 -0.84756075376E+01  0.84756075376E+01  0.00000000000E+00 0.  1.
       23    1    1    2    0    0  0.11150117101E+02 -0.70871548580E+01  0.26559565507E+03  0.28112427182E+03  0.91188000000E+02 0. -1.
       21    1    1    2  502  501 -0.11150117101E+02  0.70871548580E+01  0.60638722633E+02  0.62061320948E+02  0.00000000000E+00 0.  1.
<scales pt_clust_3="100000.00000" pt_clust_4="13.21185"></scales>
<rwgt>
<wgt id='bias'>   0.1000000E+01</wgt>
</rwgt>
<clustering>
<clus scale="   13.212">  1  4  2 -1</clus>
<clus scale="   13.212">  1  3  2 -1</clus>
</clustering>
</event>
<event>
 3   1  0.8512900E+003  0.9118800E+02  0.7546771E-02  0.1180022E+00
       -1   -1    0    0    0  501 -0.00000000000E+00  0.00000000000E+00  0.29349179797E+01  0.29349179797E+01  0.00000000000E+00 0.  1.
        1   -1    0    0  501    0  0.00000000000E+00 -0.00000000000E+00 -0.70830355409E+03  0.70830355409E+03  0.00000000000E+00 0. -1.
       23    1    1    2    0    0  0.00000000000E+00 -0.00000000000E+00 -0.70536863611E+03  0.71123847207E+03  0.91188000000E+02 0.  1.
<scales pt_clust_3="100000.00000"></scales>
<rwgt>
<wgt id='bias'>   0.1000000E+01</wgt>
</rwgt>
<clustering>
<clus scale="   91.188">  2  3  1 -1</clus>
</clustering>
</event>
<event>
 4   2  0.8512900E+003  0.9230258E+02  0.7546771E-02  0.1177863E+00
        4   -1    0    0  502    0 -0.00000000000E+00  0.00000000000E+00  0.24102121662E+02  0.24102121662E+02  0.00000000000E+00 0. -1.
       21   -1    0    0  501  502  0.00000000000E+00 -0.00000000000E+00 -0.11899509040E+03  0.11899509040E+03  0.00000000000E+00 0.  1.
       23    1    1    2    0    0 -0.12447466145E+02  0.70409661767E+01 -0.77082684929E+02  0.12025600309E+03  0.91188000000E+02 0.  1.
        4    1    1    2  501    0  0.12447466145E+02 -0.70409661767E+01 -0.17810283806E+02  0.22841208974E+02  0.00000000000E+00 0. -1.
<scales pt_clust_3="100000.00000" pt_clust_4="14.30086"></scales>
<rwgt>
<wgt id='bias'>   0.1000000E+01</wgt>
</rwgt>
<clustering>
<clus scale="   14.301">  2  4  1 -1</clus>
<clus scale="   14.301">  2  3  1 -1</clus>
</clustering>
</event>
<event>
 3   1  0.8512900E+003  0.9118800E+02  0.7546771E-02  0.1180022E+00
        3   -1    0    0  501    0  0.00000000000E+00  0.00000000000E+00  0.10158530877E+03  0.10158530877E+03  0.00000000000E+00 0. -1.
       -3   -1    0    0    0  501 -0.00000000000E+00 -0.00000000000E+00 -0.20463715287E+02  0.20463715287E+02  0.00000000000E+00 0.  1.
       23    1    1    2    0    0  0.00000000000E+00  0.00000000000E+00  0.81121593482E+02  0.12204902406E+03  0.91188000000E+02 0. -1.
<scales pt_clust_3="100000.00000"></scales>
<rwgt>
<wgt id='bias'>   0.1000000E+01</wgt>
</rwgt>
<clustering>
<clus scale="   91.188">  1  3  2 -1</clus>
</clustering>
</event>
<event>
 3   1  0.8512900E+003  0.9118800E+02  0.7546771E-02  0.1180022E+00
        2   -1    0    0  501    0  0.00000000000E+00  0.00000000000E+00  0.97384395563E+03  0.97384395563E+03  0.00000000000E+00 0. -1.
       -2   -1    0    0    0  501 -0.00000000000E+00 -0.00000000000E+00 -0.21346467511E+01  0.21346467511E+01  0.00000000000E+00 0.  1.
       23    1    1    2    0    0  0.00000000000E+00  0.00000000000E+00  0.97170930888E+03  0.97597860238E+03  0.91188000000E+02 0. -1.
<scales pt_clust_3="100000.00000"></scales>
<rwgt>
<wgt id='bias'>   0.1000000E+01</wgt>
</rwgt>
<clustering>
<clus scale="   91.188">  1  3  2 -1</clus>
</clustering>
</event>
<event>
 5   3  0.8512900E+003  0.9375524E+02  0.7546771E-02  0.1175100E+00
        1   -1    0    0  503    0  0.00000000000E+00  0.00000000000E+00  0.12128406178E+03  0.12128406178E+03  0.00000000000E+00 0. -1.
       -1   -1    0    0    0  501 -0.00000000000E+00 -0.00000000000E+00 -0.54454140461E+02  0.54454140461E+02  0.00000000000E+00 0.  1.
       23    1    1    2    0    0 -0.27101705572E+02 -0.24350031613E+01 -0.70388280653E+01  0.95421319053E+02  0.91188000000E+02 0.  1.
       21    1    1    2  502  501  0.16130641710E+02 -0.63850060507E+01  0.44024523783E+02  0.47319389246E+02  0.00000000000E+00 0. -1.
       21    1    1    2  503  502  0.10971063862E+02  0.88200092120E+01  0.29844225599E+02  0.32997493941E+02  0.00000000000E+00 0. -1.
<scales pt_clust_3="100000.00000" pt_clust_4="21.78976" pt_clust_5="14.07682"></scales>
<rwgt>
<wgt id='bias'>   0.1000000E+01</wgt>
</rwgt>
<clustering>
<clus scale="   14.077">  1  5  2 -1</clus>
<clus scale="   21.790">  1  4  2 -1</clus>
<clus scale="   14.077">  1  3  2 -1</clus>
</clustering>
</event>
<event>
 5   3  0.8512900E+003  0.1754602E+03  0.7546771E-02  0.1074192E+00
       21   -1    0    0  503  502  0.00000000000E+00  0.00000000000E+00  0.38434602185E+03  0.38434602185E+03  0.00000000000E+00 0. -1.
        1   -1    0    0  502    0 -0.00000000000E+00 -0.00000000000E+00 -0.24475815691E+02  0.24475815691E+02  0.00000000000E+00 0. -1.
       23    1    1    2    0    0  0.34296213289E+02 -0.40329496523E+02  0.28447416804E+03  0.30338672047E+03  0.91188000000E+02 0. -1.
       21    1    1    2  503  501 -0.69615777074E+01  0.10230195682E+02  0.61093276283E+02  0.62333850153E+02  0.00000000000E+00 0. -1.
        1    1    1    2  501    0 -0.27334635582E+02  0.30099300841E+02  0.14302761840E+02  0.43101266916E+02  0.00000000000E+00 0. -1.
<scales pt_clust_3="100000.00000" pt_clust_4="12.37419" pt_clust_5="100000.00000"></scales>
<rwgt>
<wgt id='bias'>   0.1000000E+01</wgt>
</rwgt>
<clustering>
<clus scale="   12.374">  1  4  2 -1</clus>
<clus scale="   41.749">  3  5 -1 -1</clus>
<clus scale="   12.374">  1  3  2 -1</clus>
</clustering>
</event>
<event>
 3   1  0.8512900E+003  0.9118800E+02  0.7546771E-02  0.1180022E+00
       -1   -1    0    0    0  501 -0.00000000000E+00  0.00000000000E+00  0.22787054130E+04  0.22787054130E+04  0.00000000000E+00 0.  1.
        1   -1    0    0  501    0  0.00000000000E+00 -0.00000000000E+00 -0.91227800844E+00  0.91227800844E+00  0.00000000000E+00 0. -1.
       23    1    1    2    0    0  0.00000000000E+00 -0.00000000000E+00  0.22777931350E+04  0.22796176910E+04  0.91188000000E+02 0.  1.
<scales pt_clust_3="100000.00000"></scales>
<rwgt>
<wgt id='bias'>   0.1000000E+01</wgt>
</rwgt>
<clustering>
<clus scale="   91.188">  2  3  1 -1</clus>
</clustering>
</event>
<event>
 3   1  0.8512900E+003  0.9118800E+02  0.7546771E-02  0.1180022E+00
        3   -1    0    0  501    0  0.00000000000E+00  0.00000000000E+00  0.34403111687E+01  0.34403111687E+01  0.00000000000E+00 0. -1.
       -3   -1    0    0    0  501 -0.00000000000E+00 -0.00000000000E+00 -0.60425139880E+03  0.60425139880E+03  0.00000000000E+00 0.  1.
       23    1    1    2    0    0  0.00000000000E+00  0.00000000000E+00 -0.60081108764E+03  0.60769170997E+03  0.91188000000E+02 0. -1.
<scales pt_clust_3="100000.00000"></scales>
<rwgt>
<wgt id='bias'>   0.1000000E+01</wgt>
</rwgt>
<clustering>
<clus scale="   91.188">  1  3  2 -1</clus>
</clustering>
</event>
<event>
 4   2  0.8512900E+003  0.1675179E+03  0.7546771E-02  0.1081043E+00
       21   -1    0    0  501  502  0.00000000000E+00  0.00000000000E+00  0.68758138230E+01  0.68758138230E+01  0.00000000000E+00 0. -1.
        1   -1    0    0  502    0 -0.00000000000E+00 -0.00000000000E+00 -0.10203251601E+04  0.10203251601E+04  0.00000000000E+00 0. -1.
       23    1    1    2    0    0  0.24917087872E+02 -0.41902151702E+02 -0.85999365633E+03  0.86618761931E+03  0.91188000000E+02 0. -1.
        1    1    1    2  501    0 -0.24917087872E+02  0.41902151702E+02 -0.15345568999E+03  0.16101335465E+03  0.00000000000E+00 0. -1.
<scales pt_clust_3="100000.00000" pt_clust_4="100000.00000"></scales>
<rwgt>
<wgt id='bias'>   0.1000000E+01</wgt>
</rwgt>
<clustering>
<clus scale="   48.751">  3  4 -1 -1</clus>
<clus scale="  167.518">  1  3  2 -1</clus>
</clustering>
</event>
<event>
 3   1  0.8512900E+003  0.9118800E+02  0.7546771E-02  0.1180022E+00
        1   -1    0    0  501    0  0.00000000000E+00  0.00000000000E+00  0.75038755617E+04  0.75038755617E+04  0.00000000000E+00 0. -1.
       -1   -1    0    0    0  501 -0.00000000000E+00 -0.00000000000E+00 -0.27703189091E+00  0.27703189091E+00  0.00000000000E+00 0.  1.
       23    1    1    2    0    0  0.00000000000E+00  0.00000000000E+00  0.75035985299E+04  0.75041525936E+04  0.91188000000E+02 0. -1.
<scales pt_clust_3="100000.00000"></scales>
<rwgt>
<wgt id='bias'>   0.1000000E+01</wgt>
</rwgt>
<clustering>
<clus scale="   91.188">  1  3  2 -1</clus>
</clustering>
</event>
<event>
 3   1  0.8512900E+003  0.9118800E+02  0.7546771E-02  0.1180022E+00
        3   -1    0    0  501    0  0.00000000000E+00  0.00000000000E+00  0.15355476275E+03  0.15355476275E+03  0.00000000000E+00 0. -1.
       -3   -1    0    0    0  501 -0.00000000000E+00 -0.00000000000E+00 -0.13537924834E+02  0.13537924834E+02  0.00000000000E+00 0.  1.
       23    1    1    2    0    0  0.00000000000E+00  0.00000000000E+00  0.14001683791E+03  0.16709268758E+03  0.91188000000E+02 0. -1.
<scales pt_clust_3="100000.00000"></scales>
<rwgt>
<wgt id='bias'>   0.1000000E+01</wgt>
</rwgt>
<clustering>
<clus scale="   91.188">  1  3  2 -1</clus>
</clustering>
</event>
<event>
 3   1  0.8512900E+003  0.9118800E+02  0.7546771E-02  0.1180022E+00
        2   -1    0    0  501    0  0.00000000000E+00  0.00000000000E+00  0.44218705792E+03  0.44218705792E+03  0.00000000000E+00 0. -1.
       -2   -1    0    0    0  501 -0.00000000000E+00 -0.00000000000E+00 -0.47012068734E+01  0.47012068734E+01  0.00000000000E+00 0.  1.
       23    1    1    2    0    0  0.00000000000E+00  0.00000000000E+00  0.43748585104E+03  0.44688826479E+03  0.91188000000E+02 0. -1.
<scales pt_clust_3="100000.00000"></scales>
<rwgt>
<wgt id='bias'>   0.1000000E+01</wgt>
</rwgt>
<clustering>
<clus scale="   91.188">  1  3  2 -1</clus>
</clustering>
</event>
<event>
 5   3  0.8512900E+003  0.1121318E+03  0.7546771E-02  0.1144368E+00
       21   -1    0    0  501  502  0.00000000000E+00  0.00000000000E+00  0.16557283520E+03  0.16557283520E+03  0.00000000000E+00 0. -1.
       -4   -1    0    0    0  501 -0.00000000000E+00 -0.00000000000E+00 -0.37046997269E+02  0.37046997269E+02  0.00000000000E+00 0.  1.
       23    1    1    2    0    0  0.42175736151E+01  0.57384609209E+01  0.52122967691E+02  0.10527474990E+03  0.91188000000E+02 0.  1.
       21    1    1    2  503  502 -0.86053722373E+01  0.10982384745E+02  0.78681149713E+02  0.79908626106E+02  0.00000000000E+00 0. -1.
       -4    1    1    2    0  503  0.43877986222E+01 -0.16720845666E+02 -0.22782794787E+01  0.17436456461E+02  0.00000000000E+00 0.  1.
<scales pt_clust_3="100000.00000" pt_clust_4="13.95225" pt_clust_5="100000.00000"></scales>
<rwgt>
<wgt id='bias'>   0.1000000E+01</wgt>
</rwgt>
<clustering>
<clus scale="   13.952">  1  4  2 -1</clus>
<clus scale="   16.169">  3  5 -1 -1</clus>
<clus scale="   13.952">  1  3  2 -1</clus>
</clustering>
</event>
<event>
 5   3  0.8512900E+003  0.9835236E+02  0.7546771E-02  0.1166715E+00
       -1   -1    0    0    0  501 -0.00000000000E+00  0.00000000000E+00  0.46654808054E+02  0.46654808054E+02  0.00000000000E+00 0.  1.
       21   -1    0    0  503  502  0.00000000000E+00 -0.00000000000E+00 -0.32485454404E+03  0.32485454404E+03  0.00000000000E+00 0.  1.
       23    1    1    2    0    0 -0.27672744995E+02  0.22042114900E+02 -0.13276518029E+02  0.98707410663E+02  0.91188000000E+02 0.  1.
       21    1    1    2  503  501  0.43454102177E+02 -0.12174252930E+02 -0.21053547035E+03  0.21531756943E+03  0.00000000000E+00 0.  1.
       -1    1    1    2    0  502 -0.15781357182E+02 -0.98678619705E+01 -0.54387747608E+02  0.57484372001E+02  0.00000000000E+00 0.  1.
<scales pt_clust_3="100000.00000" pt_clust_4="36.85018" pt_clust_5="18.61252"></scales>
<rwgt>
<wgt id='bias'>   0.1000000E+01</wgt>
</rwgt>
<clustering>
<clus scale="   18.613">  2  5  1 -1</clus>
<clus scale="   36.850">  2  4  1 -1</clus>
<clus scale="   18.613">  2  3  1 -1</clus>
</clustering>
</event>
<event>
 4   2  0.8512900E+003  0.3582980E+03  0.7546771E-02  0.9787744E-01
       21   -1    0    0  501  502  0.00000000000E+00  0.00000000000E+00  0.33888997408E+03  0.33888997408E+03  0.00000000000E+00 0.  1.
       -4   -1    0    0    0  501 -0.00000000000E+00 -0.00000000000E+00 -0.94704366508E+02  0.94704366508E+02  0.00000000000E+00 0.  1.
       23    1    1    2    0    0 -0.57147644778E+02 -0.93041496086E+02 -0.23782431006E+02  0.14423393729E+03  0.91188000000E+02 0.  1.
       -4    1    1    2    0  502  0.57147644778E+02  0.93041496086E+02  0.26796803858E+03  0.28936040330E+03  0.00000000000E+00 0.  1.
<scales pt_clust_3="100000.00000" pt_clust_4="100000.00000"></scales>
<rwgt>
<wgt id='bias'>   0.1000000E+01</wgt>
</rwgt>
<clustering>
<clus scale="  109.191">  3  4 -1 -1</clus>
<clus scale="  358.298">  1  3  2 -1</clus>
</clustering>
</event>
<event>
 3   1  0.8512900E+003  0.9118800E+02  0.7546771E-02  0.1180022E+00
       -2   -1    0    0    0  501 -0.00000000000E+00  0.00000000000E+00  0.36397265145E+03  0.36397265145E+03  0.00000000000E+00 0.  1.
        2   -1    0    0  501    0  0.00000000000E+00 -0.00000000000E+00 -0.57114533955E+01  0.57114533955E+01  0.00000000000E+00 0. -1.
       23    1    1    2    0    0  0.00000000000E+00 -0.00000000000E+00  0.35826119805E+03  0.36968410485E+03  0.91188000000E+02 0.  1.
<scales pt_clust_3="100000.00000"></scales>
<rwgt>
<wgt id='bias'>   0.1000000E+01</wgt>
</rwgt>
<clustering>
<clus scale="   91.188">  2  3  1 -1</clus>
</clustering>
</event>
<event>
 5   3  0.8512900E+003  0.1056295E+03  0.7546771E-02  0.1154441E+00
       21   -1    0    0  501  502  0.00000000000E+00  0.00000000000E+00  0.83477475925E+02  0.83477475925E+02  0.00000000000E+00 0. -1.
        3   -1    0    0  503    0 -0.00000000000E+00 -0.00000000000E+00 -0.23994665980E+03  0.23994665980E+03  0.00000000000E+00 0. -1.
       23    1    1    2    0    0  0.14394726866E+02 -0.71305338722E+01 -0.21644198103E+03  0.23541545228E+03  0.91188000000E+02 0. -1.
       21    1    1    2  503  502 -0.69544751134E+01  0.14808098733E+02  0.70875267060E+02  0.72738902886E+02  0.00000000000E+00 0. -1.
        3    1    1    2  501    0 -0.74402517531E+01 -0.76775648610E+01 -0.10902469902E+02  0.15269780559E+02  0.00000000000E+00 0. -1.
<scales pt_clust_3="100000.00000" pt_clust_4="16.35984" pt_clust_5="100000.00000"></scales>
<rwgt>
<wgt id='bias'>   0.1000000E+01</wgt>
</rwgt>
<clustering>
<clus scale="   10.691">  3  5 -1 -1</clus>
<clus scale="   16.360">  1  4  2 -1</clus>
<clus scale="   16.360">  1  3  2 -1</clus>
</clustering>
</event>
<event>
 5   3  0.8512900E+003  0.2837606E+02  0.7546771E-02  0.1171854E+00
       21   -1    0    0  503  502  0.00000000000E+00  0.00000000000E+00  0.10205645492E+03  0.10205645492E+03  0.00000000000E+00 0. -1.
       21   -1    0    0  501  503 -0.00000000000E+00 -0.00000000000E+00 -0.17801302128E+03  0.17801302128E+03  0.00000000000E+00 0.  1.
       23    1    1    2    0    0  0.24084840555E+01 -0.37110349429E+02  0.39073252942E+02  0.10594786109E+03  0.91188000000E+02 0. -1.
        1    1    1    2  501    0  0.71018315895E+01  0.27334216345E+02 -0.14152858722E+03  0.14431887055E+03  0.00000000000E+00 0. -1.
       -1    1    1    2    0  502 -0.95103156450E+01  0.97761330844E+01  0.26498767927E+02  0.29802744562E+02  0.00000000000E+00 0.  1.
<scales pt_clust_3="100000.00000" pt_clust_4="28.37606" pt_clust_5="13.63887"></scales>
<rwgt>
<wgt id='bias'>   0.1000000E+01</wgt>
</rwgt>
<clustering>
<clus scale="   13.639">  1  5  2 -1</clus>
<clus scale="   28.376">  2  4  1 -1</clus>
<clus scale="   13.639">  1  3  2 -1</clus>
</clustering>
</event>
<event>
 3   1  0.8512900E+003  0.9118800E+02  0.7546771E-02  0.1180022E+00
        1   -1    0    0  501    0  0.00000000000E+00  0.00000000000E+00  0.39254867167E+03  0.39254867167E+03  0.00000000000E+00 0. -1.
       -1   -1    0    0    0  501 -0.00000000000E+00 -0.00000000000E+00 -0.52956817487E+01  0.52956817487E+01  0.00000000000E+00 0.  1.
       23    1    1    2    0    0  0.00000000000E+00  0.00000000000E+00  0.38725298992E+03  0.39784435341E+03  0.91188000000E+02 0. -1.
<scales pt_clust_3="100000.00000"></scales>
<rwgt>
<wgt id='bias'>   0.1000000E+01</wgt>
</rwgt>
<clustering>
<clus scale="   91.188">  1  3  2 -1</clus>
</clustering>
</event>
<event>
 5   3  0.8512900E+003  0.5541428E+02  0.7546771E-02  0.1152720E+00
       21   -1    0    0  501  502  0.00000000000E+00  0.00000000000E+00  0.85907969751E+02  0.85907969751E+02  0.00000000000E+00 0. -1.
       21   -1    0    0  502  503 -0.00000000000E+00 -0.00000000000E+00 -0.19215539184E+03  0.19215539184E+03  0.00000000000E+00 0.  1.
       23    1    1    2    0    0 -0.92564830286E+01  0.19790965222E+02 -0.14588548237E+02  0.94897006624E+02  0.91188000000E+02 0.  1.
        3    1    1    2  501    0  0.26536449364E+02  0.41162602340E+02  0.21494041021E+02  0.53483986161E+02  0.00000000000E+00 0. -1.
       -3    1    1    2    0  503 -0.17279966335E+02 -0.60953567562E+02 -0.11315291487E+03  0.12968236881E+03  0.00000000000E+00 0.  1.
<scales pt_clust_3="100000.00000" pt_clust_4="48.97492" pt_clust_5="55.41428"></scales>
<rwgt>
<wgt id='bias'>   0.1000000E+01</wgt>
</rwgt>
<clustering>
<clus scale="   48.975">  1  4  2 -1</clus>
<clus scale="   55.414">  2  5  1 -1</clus>
<clus scale="   48.975">  1  3  2 -1</clus>
</clustering>
</event>
<event>
 5   3  0.8512900E+003  0.9196834E+02  0.7546771E-02  0.1178507E+00
        4   -1    0    0  502    0 -0.00000000000E+00  0.00000000000E+00  0.36456996045E+02  0.36456996045E+02  0.00000000000E+00 0.  1.
       21   -1    0    0  503  502  0.00000000000E+00 -0.00000000000E+00 -0.71128232878E+03  0.71128232878E+03  0.00000000000E+00 0.  1.
       23    1    1    2    0    0 -0.11486801498E+02 -0.47626315480E+01 -0.23209101047E+02  0.94913344601E+02  0.91188000000E+02 0.  1.
       21    1    1    2  503  501  0.10213893054E+02 -0.12630118028E+02 -0.49046221692E+03  0.49073111754E+03  0.00000000000E+00 0.  1.
        4    1    1    2  501    0  0.12729084440E+01  0.17392749576E+02 -0.16115401477E+03  0.16209486269E+03  0.00000000000E+00 0.  1.
<scales pt_clust_3="100000.00000" pt_clust_4="16.24326" pt_clust_5="11.95513"></scales>
<rwgt>
<wgt id='bias'>   0.1000000E+01</wgt>
</rwgt>
<clustering>
<clus scale="   16.243">  2  4  1 -1</clus>
<clus scale="   11.955">  2  5  1 -1</clus>
<clus scale="   16.243">  2  3  1 -1</clus>
</clustering>
</event>
<event>
 4   2  0.8512900E+003  0.9178628E+02  0.7546771E-02  0.1178859E+00
       21   -1    0    0  501  502  0.00000000000E+00  0.00000000000E+00  0.32711730181E+02  0.32711730181E+02  0.00000000000E+00 0.  1.
        3   -1    0    0  502    0 -0.00000000000E+00 -0.00000000000E+00 -0.92891811149E+02  0.92891811149E+02  0.00000000000E+00 0. -1.
       23    1    1    2    0    0 -0.45371140298E+01  0.94278379157E+01 -0.66532301739E+02  0.11336343348E+03  0.91188000000E+02 0. -1.
        3    1    1    2  501    0  0.45371140298E+01 -0.94278379157E+01  0.63522207708E+01  0.12240107851E+02  0.00000000000E+00 0. -1.
<scales pt_clust_3="100000.00000" pt_clust_4="10.46277"></scales>
<rwgt>
<wgt id='bias'>   0.1000000E+01</wgt>
</rwgt>
<clustering>
<clus scale="   10.463">  1  4  2 -1</clus>
<clus scale="   10.463">  1  3  2 -1</clus>
</clustering>
</event>
<event>
 5   3  0.8512900E+003  0.1557720E+02  0.7546771E-02  0.1177467E+00
       21   -1    0    0  503  502  0.00000000000E+00  0.00000000000E+00  0.11900756908E+05  0.11900756908E+05  0.00000000000E+00 0.  1.
       21   -1    0    0  501  503 -0.00000000000E+00 -0.00000000000E+00 -0.53545720841E+00  0.53545720841E+00  0.00000000000E+00 0. -1.
       23    1    1    2    0    0  0.12801608218E+02 -0.41777697830E+01  0.98353864200E+04  0.98358183501E+04  0.91188000000E+02 0.  0.
        5    1    1    2  501    0 -0.28003374223E+01  0.15526126076E+02  0.21535056135E+03  0.21592768872E+03  0.00000000000E+00 0. -1.
       -5    1    1    2    0  502 -0.10001270796E+02 -0.11348356293E+02  0.18494844698E+04  0.18495463267E+04  0.00000000000E+00 0.  1.
<scales pt_clust_3="100000.00000" pt_clust_4="15.57720" pt_clust_5="15.12649"></scales>
<rwgt>
<wgt id='bias'>   0.1000000E+01</wgt>
</rwgt>
<clustering>
<clus scale="   15.126">  1  5  2 -1</clus>
<clus scale="   15.577">  2  4  1 -1</clus>
<clus scale="   15.126">  1  3  2 -1</clus>
</clustering>
</event>
<event>
 5   3  0.8512900E+003  0.1544030E+03  0.7546771E-02  0.1093324E+00
        5   -1    0    0  501    0 -0.00000000000E+00  0.00000000000E+00  0.14562006881E+02  0.14562006881E+02  0.00000000000E+00 0. -1.
        2   -1    0    0  502    0  0.00000000000E+00 -0.00000000000E+00 -0.22168635713E+05  0.22168635713E+05  0.00000000000E+00 0.  1.
       23    1    1    2    0    0 -0.78185225538E+01  0.29858798827E+02 -0.14784289827E+03  0.17642406603E+03  0.91188000000E+02 0. -1.
        2    1    1    2  501    0  0.60415211237E+01 -0.13650053960E+02 -0.21759272229E+05  0.21759277350E+05  0.00000000000E+00 0.  1.
        5    1    1    2  502    0  0.17770014301E+01 -0.16208744867E+02 -0.24695857827E+03  0.24749630406E+03  0.00000000000E+00 0. -1.
<scales pt_clust_3="100000.00000" pt_clust_4="14.92729" pt_clust_5="100000.00000"></scales>
<rwgt>
<wgt id='bias'>   0.1000000E+01</wgt>
</rwgt>
<clustering>
<clus scale="   14.927">  2  4  1 -1</clus>
<clus scale="   25.047">  3  5 -1 -1</clus>
<clus scale="   14.927">  2  3  1 -1</clus>
</clustering>
</event>
<event>
 4   2  0.8512900E+003  0.9213691E+02  0.7546771E-02  0.1178182E+00
       21   -1    0    0  501  502  0.00000000000E+00  0.00000000000E+00  0.20466560578E+04  0.20466560578E+04  0.00000000000E+00 0. -1.
        2   -1    0    0  502    0 -0.00000000000E+00 -0.00000000000E+00 -0.70425742402E+01  0.70425742402E+01  0.00000000000E+00 0. -1.
       23    1    1    2    0    0 -0.11399712729E+02 -0.66337065926E+01  0.29540632265E+03  0.30944160406E+03  0.91188000000E+02 0. -1.
        2    1    1    2  501    0  0.11399712729E+02  0.66337065926E+01  0.17442071609E+04  0.17442570280E+04  0.00000000000E+00 0. -1.
<scales pt_clust_3="100000.00000" pt_clust_4="13.18937"></scales>
<rwgt>
<wgt id='bias'>   0.1000000E+01</wgt>
</rwgt>
<clustering>
<clus scale="   13.189">  1  4  2 -1</clus>
<clus scale="   13.189">  1  3  2 -1</clus>
</clustering>
</event>
<event>
 3   1  0.8512900E+003  0.9118800E+02  0.7546771E-02  0.1180022E+00
       -3   -1    0    0    0  501 -0.00000000000E+00  0.00000000000E+00  0.28520968982E+00  0.28520968982E+00  0.00000000000E+00 0.  1.
        3   -1    0    0  501    0  0.00000000000E+00 -0.00000000000E+00 -0.72887174251E+04  0.72887174251E+04  0.00000000000E+00 0. -1.
       23    1    1    2    0    0  0.00000000000E+00 -0.00000000000E+00 -0.72884322154E+04  0.72890026348E+04  0.91188000000E+02 0.  1.
<scales pt_clust_3="100000.00000"></scales>
<rwgt>
<wgt id='bias'>   0.1000000E+01</wgt>
</rwgt>
<clustering>
<clus scale="   91.188">  2  3  1 -1</clus>
</clustering>
</event>
<event>
 5   3  0.8512900E+003  0.9991582E+02  0.7546771E-02  0.1163980E+00
       21   -1    0    0  503  502  0.00000000000E+00  0.00000000000E+00  0.53977545471E+03  0.53977545471E+03  0.00000000000E+00 0.  1.
       -5   -1    0    0    0  501 -0.00000000000E+00 -0.00000000000E+00 -0.20149147709E+02  0.20149147709E+02  0.00000000000E+00 0.  1.
       23    1    1    2    0    0  0.37973261298E+01 -0.44710097141E+02  0.12275070419E+03  0.15936247738E+03  0.91188000000E+02 0.  1.
       21    1    1    2  503  501 -0.49285588310E+01  0.90319853753E+01  0.21331019154E+03  0.21355820112E+03  0.00000000000E+00 0.  1.
       -5    1    1    2    0  502  0.11312327012E+01  0.35678111766E+02  0.18356541128E+03  0.18700392392E+03  0.00000000000E+00 0.  1.
<scales pt_clust_3="100000.00000" pt_clust_4="10.28919" pt_clust_5="40.84018"></scales>
<rwgt>
<wgt id='bias'>   0.1000000E+01</wgt>
</rwgt>
<clustering>
<clus scale="   10.289">  1  4  2 -1</clus>
<clus scale="   40.840">  1  5  2 -1</clus>
<clus scale="   10.289">  1  3  2 -1</clus>
</clustering>
</event>
<event>
 5   3  0.8512900E+003  0.5788797E+03  0.7546771E-02  0.9237836E-01
       -1   -1    0    0    0  501 -0.00000000000E+00  0.00000000000E+00  0.20359067317E+03  0.20359067317E+03  0.00000000000E+00 0.  1.
        4   -1    0    0  501    0  0.00000000000E+00 -0.00000000000E+00 -0.46456821836E+03  0.46456821836E+03  0.00000000000E+00 0. -1.
       23    1    1    2    0    0  0.34262274894E+02 -0.20365910419E+02 -0.42903359218E+03  0.44042450925E+03  0.91188000000E+02 0. -1.
        4    1    1    2  502    0  0.17033555021E+02  0.31901564302E+02 -0.13589113762E+02  0.38633092219E+02  0.00000000000E+00 0. -1.
       -1    1    1    2    0  502 -0.51295829915E+02 -0.11535653883E+02  0.18164516075E+03  0.18910129005E+03  0.00000000000E+00 0.  1.
<scales pt_clust_3="100000.00000" pt_clust_4="36.16425" pt_clust_5="100000.00000"></scales>
<rwgt>
<wgt id='bias'>   0.1000000E+01</wgt>
</rwgt>
<clustering>
<clus scale="   36.164">  2  4  1 -1</clus>
<clus scale="   52.377">  3  5 -1 -1</clus>
<clus scale="   36.164">  2  3  1 -1</clus>
</clustering>
</event>
<event>
 3   1  0.8512900E+003  0.9118800E+02  0.7546771E-02  0.1180022E+00
       -4   -1    0    0    0  501 -0.00000000000E+00  0.00000000000E+00  0.31032700917E+01  0.31032700917E+01  0.00000000000E+00 0.  1.
        4   -1    0    0  501    0  0.00000000000E+00 -0.00000000000E+00 -0.66987815258E+03  0.66987815258E+03  0.00000000000E+00 0. -1.
       23    1    1    2    0    0  0.00000000000E+00 -0.00000000000E+00 -0.66677488249E+03  0.67298142268E+03  0.91188000000E+02 0.  1.
<scales pt_clust_3="100000.00000"></scales>
<rwgt>
<wgt id='bias'>   0.1000000E+01</wgt>
</rwgt>
<clustering>
<clus scale="   91.188">  2  3  1 -1</clus>
</clustering>
</event>
<event>
 3   1  0.8512900E+003  0.9118800E+02  0.7546771E-02  0.1180022E+00
       -1   -1    0    0    0  501 -0.00000000000E+00  0.00000000000E+00  0.49777471485E+04  0.49777471485E+04  0.00000000000E+00 0.  1.
        1   -1    0    0  501    0  0.00000000000E+00 -0.00000000000E+00 -0.41762121980E+00  0.41762121980E+00  0.00000000000E+00 0. -1.
       23    1    1    2    0    0  0.00000000000E+00 -0.00000000000E+00  0.49773295273E+04  0.49781647697E+04  0.91188000000E+02 0.  1.
<scales pt_clust_3="100000.00000"></scales>
<rwgt>
<wgt id='bias'>   0.1000000E+01</wgt>
</rwgt>
<clustering>
<clus scale="   91.188">  2  3  1 -1</clus>
</clustering>
</event>
<event>
 3   1  0.8512900E+003  0.9118800E+02  0.7546771E-02  0.1180022E+00
        1   -1    0    0  501    0  0.00000000000E+00  0.00000000000E+00  0.16228916636E+04  0.16228916636E+04  0.00000000000E+00 0. -1.
       -1   -1    0    0    0  501 -0.00000000000E+00 -0.00000000000E+00 -0.12809313663E+01  0.12809313663E+01  0.00000000000E+00 0.  1.
       23    1    1    2    0    0  0.00000000000E+00  0.00000000000E+00  0.16216107322E+04  0.16241725950E+04  0.91188000000E+02 0. -1.
<scales pt_clust_3="100000.00000"></scales>
<rwgt>
<wgt id='bias'>   0.1000000E+01</wgt>
</rwgt>
<clustering>
<clus scale="   91.188">  1  3  2 -1</clus>
</clustering>
</event>
<event>
 5   3  0.8512900E+003  0.1107468E+03  0.7546771E-02  0.1146449E+00
        3   -1    0    0  502    0 -0.00000000000E+00  0.00000000000E+00  0.67742887037E+03  0.67742887037E+03  0.00000000000E+00 0. -1.
       21   -1    0    0  503  502  0.00000000000E+00 -0.00000000000E+00 -0.47851958698E+03  0.47851958698E+03  0.00000000000E+00 0. -1.
       23    1    1    2    0    0 -0.21511846289E+02 -0.50302935193E+02  0.48184290153E+03  0.49343791699E+03  0.91188000000E+02 0.  0.
       21    1    1    2  503  501  0.21493842155E+01 -0.20123974709E+02 -0.46546667117E+03  0.46590644574E+03  0.00000000000E+00 0. -1.
        3    1    1    2  501    0  0.19362462073E+02  0.70426909902E+02  0.18253305303E+03  0.19660409462E+03  0.00000000000E+00 0. -1.
<scales pt_clust_3="100000.00000" pt_clust_4="20.23843" pt_clust_5="62.84585"></scales>
<rwgt>
<wgt id='bias'>   0.1000000E+01</wgt>
</rwgt>
<clustering>
<clus scale="   20.238">  2  4  1 -1</clus>
<clus scale="   62.846">  2  5  1 -1</clus>
<clus scale="   20.238">  2  3  1 -1</clus>
</clustering>
</event>
<event>
 3   1  0.8512900E+003  0.9118800E+02  0.7546771E-02  0.1180022E+00
       -4   -1    0    0    0  501 -0.00000000000E+00  0.00000000000E+00  0.11026141644E+03  0.11026141644E+03  0.00000000000E+00 0. -1.
        4   -1    0    0  501    0  0.00000000000E+00 -0.00000000000E+00 -0.18853492937E+02  0.18853492937E+02  0.00000000000E+00 0.  1.
       23    1    1    2    0    0  0.00000000000E+00 -0.00000000000E+00  0.91407923502E+02  0.12911490938E+03  0.91188000000E+02 0. -1.
<scales pt_clust_3="100000.00000"></scales>
<rwgt>
<wgt id='bias'>   0.1000000E+01</wgt>
</rwgt>
<clustering>
<clus scale="   91.188">  2  3  1 -1</clus>
</clustering>
</event>
<event>
 3   1  0.8512900E+003  0.9118800E+02  0.7546771E-02  0.1180022E+00
        1   -1    0    0  501    0  0.00000000000E+00  0.00000000000E+00  0.59920774820E+01  0.59920774820E+01  0.00000000000E+00 0. -1.
       -1   -1    0    0    0  501 -0.00000000000E+00 -0.00000000000E+00 -0.34692689510E+03  0.34692689510E+03  0.00000000000E+00 0.  1.
       23    1    1    2    0    0  0.00000000000E+00  0.00000000000E+00 -0.34093481762E+03  0.35291897258E+03  0.91188000000E+02 0. -1.
<scales pt_clust_3="100000.00000"></scales>
<rwgt>
<wgt id='bias'>   0.1000000E+01</wgt>
</rwgt>
<clustering>
<clus scale="   91.188">  1  3  2 -1</clus>
</clustering>
</event>
<event>
 4   2  0.8512900E+003  0.9192157E+02  0.7546771E-02  0.1178597E+00
        3   -1    0    0  502    0  0.00000000000E+00  0.00000000000E+00  0.61137147848E+01  0.61137147848E+01  0.00000000000E+00 0. -1.
       -3   -1    0    0    0  501 -0.00000000000E+00 -0.00000000000E+00 -0.44171904739E+03  0.44171904739E+03  0.00000000000E+00 0.  1.
       23    1    1    2    0    0 -0.11043624121E+02  0.35159412372E+01 -0.39825430613E+03  0.40872492849E+03  0.91188000000E+02 0.  1.
       21    1    1    2  502  501  0.11043624121E+02 -0.35159412372E+01 -0.37351026473E+02  0.39107833679E+02  0.00000000000E+00 0. -1.
<scales pt_clust_3="100000.00000" pt_clust_4="11.58980"></scales>
<rwgt>
<wgt id='bias'>   0.1000000E+01</wgt>
</rwgt>
<clustering>
<clus scale="   11.590">  1  4  2 -1</clus>
<clus scale="   11.590">  1  3  2 -1</clus>
</clustering>
</event>
<event>
 3   1  0.8512900E+003  0.9118800E+02  0.7546771E-02  0.1180022E+00
        3   -1    0    0  501    0  0.00000000000E+00  0.00000000000E+00  0.18161993565E+02  0.18161993565E+02  0.00000000000E+00 0. -1.
       -3   -1    0    0    0  501 -0.00000000000E+00 -0.00000000000E+00 -0.11445950735E+03  0.11445950735E+03  0.00000000000E+00 0.  1.
       23    1    1    2    0    0  0.00000000000E+00  0.00000000000E+00 -0.96297513787E+02  0.13262150092E+03  0.91188000000E+02 0. -1.
<scales pt_clust_3="100000.00000"></scales>
<rwgt>
<wgt id='bias'>   0.1000000E+01</wgt>
</rwgt>
<clustering>
<clus scale="   91.188">  1  3  2 -1</clus>
</clustering>
</event>
<event>
 3   1  0.8512900E+003  0.9118800E+02  0.7546771E-02  0.1180022E+00
       -1   -1    0    0    0  501 -0.00000000000E+00  0.00000000000E+00  0.22236759511E+02  0.22236759511E+02  0.00000000000E+00 0.  1.
        1   -1    0    0  501    0  0.00000000000E+00 -0.00000000000E+00 -0.93485421516E+02  0.93485421516E+02  0.00000000000E+00 0. -1.
       23    1    1    2    0    0  0.00000000000E+00 -0.00000000000E+00 -0.71248662006E+02  0.11572218103E+03  0.91188000000E+02 0.  1.
<scales pt_clust_3="100000.00000"></scales>
<rwgt>
<wgt id='bias'>   0.1000000E+01</wgt>
</rwgt>
<clustering>
<clus scale="   91.188">  2  3  1 -1</clus>
</clustering>
</event>
<event>
 4   2  0.8512900E+003  0.1459932E+03  0.7546771E-02  0.1101923E+00
       21   -1    0    0  501  502  0.00000000000E+00  0.00000000000E+00  0.51093301045E+01  0.51093301045E+01  0.00000000000E+00 0.  1.
       -5   -1    0    0    0  501 -0.00000000000E+00 -0.00000000000E+00 -0.10428970667E+04  0.10428970667E+04  0.00000000000E+00 0.  1.
       23    1    1    2    0    0 -0.18625666570E+02  0.40215033170E+02 -0.75155128038E+03  0.75835924385E+03  0.91188000000E+02 0.  1.
       -5    1    1    2    0  502  0.18625666570E+02 -0.40215033170E+02 -0.28623645626E+03  0.28964715300E+03  0.00000000000E+00 0.  1.
<scales pt_clust_3="100000.00000" pt_clust_4="100000.00000"></scales>
<rwgt>
<wgt id='bias'>   0.1000000E+01</wgt>
</rwgt>
<clustering>
<clus scale="   44.319">  3  4 -1 -1</clus>
<clus scale="  145.993">  1  3  2 -1</clus>
</clustering>
</event>
<event>
 4   2  0.8512900E+003  0.9268694E+02  0.7546771E-02  0.1177127E+00
       -2   -1    0    0    0  501 -0.00000000000E+00  0.00000000000E+00  0.53127644225E+02  0.53127644225E+02  0.00000000000E+00 0.  1.
       21   -1    0    0  501  502  0.00000000000E+00 -0.00000000000E+00 -0.10185841726E+03  0.10185841726E+03  0.00000000000E+00 0. -1.
       23    1    1    2    0    0  0.68491046932E+00 -0.16587577544E+02  0.10679146783E+02  0.93300119781E+02  0.91188000000E+02 0.  1.
       -2    1    1    2    0  502 -0.68491046932E+00  0.16587577544E+02 -0.59409919820E+02  0.61685941706E+02  0.00000000000E+00 0.  1.
<scales pt_clust_3="100000.00000" pt_clust_4="16.60171"></scales>
<rwgt>
<wgt id='bias'>   0.1000000E+01</wgt>
</rwgt>
<clustering>
<clus scale="   16.602">  2  4  1 -1</clus>
<clus scale="   16.602">  2  3  1 -1</clus>
</clustering>
</event>
<event>
 3   1  0.8512900E+003  0.9118800E+02  0.7546771E-02  0.1180022E+00
        3   -1    0    0  501    0  0.00000000000E+00  0.00000000000E+00  0.32695158601E+02  0.32695158601E+02  0.00000000000E+00 0. -1.
       -3   -1    0    0    0  501 -0.00000000000E+00 -0.00000000000E+00 -0.63581671567E+02  0.63581671567E+02  0.00000000000E+00 0.  1.
       23    1    1    2    0    0  0.00000000000E+00  0.00000000000E+00 -0.30886512965E+02  0.96276830168E+02  0.91188000000E+02 0. -1.
<scales pt_clust_3="100000.00000"></scales>
<rwgt>
<wgt id='bias'>   0.1000000E+01</wgt>
</rwgt>
<clustering>
<clus scale="   91.188">  1  3  2 -1</clus>
</clustering>
</event>
<event>
 3   1  0.8512900E+003  0.9118800E+02  0.7546771E-02  0.1180022E+00
       -2   -1    0    0    0  501 -0.00000000000E+00  0.00000000000E+00  0.18099300508E+00  0.18099300508E+00  0.00000000000E+00 0.  1.
        2   -1    0    0  501    0  0.00000000000E+00 -0.00000000000E+00 -0.11485597662E+05  0.11485597662E+05  0.00000000000E+00 0. -1.
       23    1    1    2    0    0  0.00000000000E+00 -0.00000000000E+00 -0.11485416669E+05  0.11485778655E+05  0.91188000000E+02 0.  1.
<scales pt_clust_3="100000.00000"></scales>
<rwgt>
<wgt id='bias'>   0.1000000E+01</wgt>
</rwgt>
<clustering>
<clus scale="   91.188">  2  3  1 -1</clus>
</clustering>
</event>
<event>
 5   3  0.8512900E+003  0.1651847E+03  0.7546771E-02  0.1083135E+00
       21   -1    0    0  501  502  0.00000000000E+00  0.00000000000E+00  0.32935684608E+04  0.32935684608E+04  0.00000000000E+00 0. -1.
       -1   -1    0    0    0  501 -0.00000000000E+00 -0.00000000000E+00 -0.27594566307E+03  0.27594566307E+03  0.00000000000E+00 0.  1.
       23    1    1    2    0    0  0.47850283395E+01 -0.15954409400E+02 -0.26555647065E+03  0.28127020838E+03  0.91188000000E+02 0.  1.
       21    1    1    2  503  502  0.58652534039E+01  0.84143802240E+01  0.32688392622E+04  0.32688553540E+04  0.00000000000E+00 0. -1.
       -1    1    1    2    0  503 -0.10650281743E+02  0.75400291761E+01  0.14340006166E+02  0.19388561526E+02  0.00000000000E+00 0.  1.
<scales pt_clust_3="100000.00000" pt_clust_4="10.25685" pt_clust_5="100000.00000"></scales>
<rwgt>
<wgt id='bias'>   0.1000000E+01</wgt>
</rwgt>
<clustering>
<clus scale="   10.257">  1  4  2 -1</clus>
<clus scale="   14.852">  3  5 -1 -1</clus>
<clus scale="   10.257">  1  3  2 -1</clus>
</clustering>
</event>
<event>
 3   1  0.8512900E+003  0.9118800E+02  0.7546771E-02  0.1180022E+00
       -2   -1    0    0    0  501 -0.00000000000E+00  0.00000000000E+00  0.53056774757E+00  0.53056774757E+00  0.00000000000E+00 0.  1.
        2   -1    0    0  501    0  0.00000000000E+00 -0.00000000000E+00 -0.39180912250E+04  0.39180912250E+04  0.00000000000E+00 0. -1.
       23    1    1    2    0    0  0.00000000000E+00 -0.00000000000E+00 -0.39175606572E+04  0.39186217927E+04  0.91188000000E+02 0.  1.
<scales pt_clust_3="100000.00000"></scales>
<rwgt>
<wgt id='bias'>   0.1000000E+01</wgt>
</rwgt>
<clustering>
<clus scale="   91.188">  2  3  1 -1</clus>
</clustering>
</event>
<event>
 3   1  0.8512900E+003  0.9118800E+02  0.7546771E-02  0.1180022E+00
        2   -1    0    0  501    0  0.00000000000E+00  0.00000000000E+00  0.60721003554E+00  0.60721003554E+00  0.00000000000E+00 0. -1.
       -2   -1    0    0    0  501 -0.00000000000E+00 -0.00000000000E+00 -0.34235482195E+04  0.34235482195E+04  0.00000000000E+00 0.  1.
       23    1    1    2    0    0  0.00000000000E+00  0.00000000000E+00 -0.34229410094E+04  0.34241554295E+04  0.91188000000E+02 0. -1.
<scales pt_clust_3="100000.00000"></scales>
<rwgt>
<wgt id='bias'>   0.1000000E+01</wgt>
</rwgt>
<clustering>
<clus scale="   91.188">  1  3  2 -1</clus>
</clustering>
</event>
<event>
 3   1  0.8512900E+003  0.9118800E+02  0.7546771E-02  0.1180022E+00
       -5   -1    0    0    0  501 -0.00000000000E+00  0.00000000000E+00  0.28396517328E+04  0.28396517328E+04  0.00000000000E+00 0.  1.
        5   -1    0    0  501    0  0.00000000000E+00 -0.00000000000E+00 -0.73206612345E+00  0.73206612345E+00  0.00000000000E+00 0. -1.
       23    1    1    2    0    0  0.00000000000E+00 -0.00000000000E+00  0.28389196667E+04  0.28403837990E+04  0.91188000000E+02 0.  1.
<scales pt_clust_3="100000.00000"></scales>
<rwgt>
<wgt id='bias'>   0.1000000E+01</wgt>
</rwgt>
<clustering>
<clus scale="   91.188">  2  3  1 -1</clus>
</clustering>
</event>
<event>
 4   2  0.8512900E+003  0.9295539E+02  0.7546771E-02  0.1176615E+00
       21   -1    0    0  501  502  0.00000000000E+00  0.00000000000E+00  0.17275682088E+04  0.17275682088E+04  0.00000000000E+00 0.  1.
       -3   -1    0    0    0  501 -0.00000000000E+00 -0.00000000000E+00 -0.70993169163E+01  0.70993169163E+01  0.00000000000E+00 0.  1.
       23    1    1    2    0    0  0.61589622114E+01  0.16956414918E+02  0.29971173610E+03  0.31379583956E+03  0.91188000000E+02 0.  1.
       -3    1    1    2    0  502 -0.61589622114E+01 -0.16956414918E+02  0.14207571558E+04  0.14208716861E+04  0.00000000000E+00 0.  1.
<scales pt_clust_3="100000.00000" pt_clust_4="18.04031"></scales>
<rwgt>
<wgt id='bias'>   0.1000000E+01</wgt>
</rwgt>
<clustering>
<clus scale="   18.040">  1  4  2 -1</clus>
<clus scale="   18.040">  1  3  2 -1</clus>
</clustering>
</event>
<event>
 5   3  0.8512900E+003  0.3597661E+02  0.7546771E-02  0.1167289E+00
       21   -1    0    0  501  502  0.00000000000E+00  0.00000000000E+00  0.19602889263E+04  0.19602889263E+04  0.00000000000E+00 0.  1.
       21   -1    0    0  502  503 -0.00000000000E+00 -0.00000000000E+00 -0.18180397324E+02  0.18180397324E+02  0.00000000000E+00 0.  1.
       23    1    1    2    0    0 -0.31426622333E+02  0.18487188306E+02  0.62785161299E+03  0.63548588340E+03  0.91188000000E+02 0.  0.
        4    1    1    2  501    0 -0.40495370463E+01 -0.12148579223E+02  0.13059341043E+04  0.13059968880E+04  0.00000000000E+00 0. -1.
       -4    1    1    2    0  503  0.35476159379E+02 -0.63386090829E+01  0.83228116746E+01  0.36986552199E+02  0.00000000000E+00 0.  1.
<scales pt_clust_3="100000.00000" pt_clust_4="12.80573" pt_clust_5="35.97661"></scales>
<rwgt>
<wgt id='bias'>   0.1000000E+01</wgt>
</rwgt>
<clustering>
<clus scale="   12.806">  1  4  2 -1</clus>
<clus scale="   35.977">  2  5  1 -1</clus>
<clus scale="   12.806">  1  3  2 -1</clus>
</clustering>
</event>
<event>
 3   1  0.8512900E+003  0.9118800E+02  0.7546771E-02  0.1180022E+00
        1   -1    0    0  501    0  0.00000000000E+00  0.00000000000E+00  0.39573347535E+01  0.39573347535E+01  0.00000000000E+00 0. -1.
       -1   -1    0    0    0  501 -0.00000000000E+00 -0.00000000000E+00 -0.52530628959E+03  0.52530628959E+03  0.00000000000E+00 0.  1.
       23    1    1    2    0    0  0.00000000000E+00  0.00000000000E+00 -0.52134895483E+03  0.52926362434E+03  0.91188000000E+02 0. -1.
<scales pt_clust_3="100000.00000"></scales>
<rwgt>
<wgt id='bias'>   0.1000000E+01</wgt>
</rwgt>
<clustering>
<clus scale="   91.188">  1  3  2 -1</clus>
</clustering>
</event>
<event>
 5   3  0.8512900E+003  0.1123878E+03  0.7546771E-02  0.1143987E+00
       -1   -1    0    0    0  501 -0.00000000000E+00  0.00000000000E+00  0.97882628356E+02  0.97882628356E+02  0.00000000000E+00 0.  1.
       21   -1    0    0  501  502  0.00000000000E+00 -0.00000000000E+00 -0.29182073095E+03  0.29182073095E+03  0.00000000000E+00 0.  1.
       23    1    1    2    0    0  0.49589065691E+02  0.35371751480E+02  0.45397467262E+02  0.11868621494E+03  0.91188000000E+02 0.  1.
       21    1    1    2  503  502  0.24112537163E+02  0.21186964211E+02 -0.41592202122E+02  0.52537730997E+02  0.00000000000E+00 0. -1.
       -1    1    1    2    0  503 -0.73701602854E+02 -0.56558715690E+02 -0.19774336773E+03  0.21847941337E+03  0.00000000000E+00 0.  1.
<scales pt_clust_3="100000.00000" pt_clust_4="32.09832" pt_clust_5="65.69457"></scales>
<rwgt>
<wgt id='bias'>   0.1000000E+01</wgt>
</rwgt>
<clustering>
<clus scale="   32.098">  2  4  1 -1</clus>
<clus scale="   65.695">  2  5  1 -1</clus>
<clus scale="   32.098">  2  3  1 -1</clus>
</clustering>
</event>
<event>
 3   1  0.8512900E+003  0.9118800E+02  0.7546771E-02  0.1180022E+00
       -2   -1    0    0    0  501 -0.00000000000E+00  0.00000000000E+00  0.24353383920E+03  0.24353383920E+03  0.00000000000E+00 0.  1.
        2   -1    0    0  501    0  0.00000000000E+00 -0.00000000000E+00 -0.85360327865E+01  0.85360327865E+01  0.00000000000E+00 0. -1.
       23    1    1    2    0    0  0.00000000000E+00 -0.00000000000E+00  0.23499780641E+03  0.25206987198E+03  0.91188000000E+02 0.  1.
<scales pt_clust_3="100000.00000"></scales>
<rwgt>
<wgt id='bias'>   0.1000000E+01</wgt>
</rwgt>
<clustering>
<clus scale="   91.188">  2  3  1 -1</clus>
</clustering>
</event>
<event>
 3   1  0.8512900E+003  0.9118800E+02  0.7546771E-02  0.1180022E+00
       -3   -1    0    0    0  501 -0.00000000000E+00  0.00000000000E+00  0.59993495464E+01  0.59993495464E+01  0.00000000000E+00 0.  1.
        3   -1    0    0  501    0  0.00000000000E+00 -0.00000000000E+00 -0.34650637039E+03  0.34650637039E+03  0.00000000000E+00 0. -1.
       23    1    1    2    0    0  0.00000000000E+00 -0.00000000000E+00 -0.34050702084E+03  0.35250571993E+03  0.91188000000E+02 0.  1.
<scales pt_clust_3="100000.00000"></scales>
<rwgt>
<wgt id='bias'>   0.1000000E+01</wgt>
</rwgt>
<clustering>
<clus scale="   91.188">  2  3  1 -1</clus>
</clustering>
</event>
<event>
 4   2  0.8512900E+003  0.9627274E+02  0.7546771E-02  0.1170443E+00
       21   -1    0    0  501  502  0.00000000000E+00  0.00000000000E+00  0.14541386377E+01  0.14541386377E+01  0.00000000000E+00 0.  1.
        3   -1    0    0  502    0 -0.00000000000E+00 -0.00000000000E+00 -0.27796196308E+04  0.27796196308E+04  0.00000000000E+00 0. -1.
       23    1    1    2    0    0 -0.19186724825E+02 -0.24187969570E+02 -0.20917080265E+04  0.20939223739E+04  0.91188000000E+02 0.  1.
        3    1    1    2  501    0  0.19186724825E+02  0.24187969570E+02 -0.68645746569E+03  0.68715139560E+03  0.00000000000E+00 0. -1.
<scales pt_clust_3="100000.00000" pt_clust_4="30.87376"></scales>
<rwgt>
<wgt id='bias'>   0.1000000E+01</wgt>
</rwgt>
<clustering>
<clus scale="   30.874">  1  4  2 -1</clus>
<clus scale="   30.874">  1  3  2 -1</clus>
</clustering>
</event>
<event>
 4   2  0.8512900E+003  0.9691090E+02  0.7546771E-02  0.1169288E+00
       21   -1    0    0  501  502  0.00000000000E+00  0.00000000000E+00  0.80987136584E+02  0.80987136584E+02  0.00000000000E+00 0. -1.
        1   -1    0    0  502    0 -0.00000000000E+00 -0.00000000000E+00 -0.52042720764E+02  0.52042720764E+02  0.00000000000E+00 0. -1.
       23    1    1    2    0    0 -0.31772081524E+02  0.81856684884E+01  0.24120589631E+02  0.99867534871E+02  0.91188000000E+02 0. -1.
        1    1    1    2  501    0  0.31772081524E+02 -0.81856684884E+01  0.48238261894E+01  0.33162322477E+02  0.00000000000E+00 0. -1.
<scales pt_clust_3="100000.00000" pt_clust_4="32.80962"></scales>
<rwgt>
<wgt id='bias'>   0.1000000E+01</wgt>
</rwgt>
<clustering>
<clus scale="   32.810">  1  4  2 -1</clus>
<clus scale="   32.810">  1  3  2 -1</clus>
</clustering>
</event>
<event>
 4   2  0.8512900E+003  0.9197221E+02  0.7546771E-02  0.1178500E+00
       21   -1    0    0  501  502  0.00000000000E+00  0.00000000000E+00  0.25832578666E+04  0.25832578666E+04  0.00000000000E+00 0. -1.
        3   -1    0    0  502    0 -0.00000000000E+00 -0.00000000000E+00 -0.34916289300E+01  0.34916289300E+01  0.00000000000E+00 0. -1.
       23    1    1    2    0    0 -0.56632352593E+01 -0.10562337557E+02  0.60535250691E+03  0.61229939097E+03  0.91188000000E+02 0. -1.
        3    1    1    2  501    0  0.56632352593E+01  0.10562337557E+02  0.19744137307E+04  0.19744501045E+04  0.00000000000E+00 0. -1.
<scales pt_clust_3="100000.00000" pt_clust_4="11.98479"></scales>
<rwgt>
<wgt id='bias'>   0.1000000E+01</wgt>
</rwgt>
<clustering>
<clus scale="   11.985">  1  4  2 -1</clus>
<clus scale="   11.985">  1  3  2 -1</clus>
</clustering>
</event>
<event>
 5   3  0.8512900E+003  0.1030757E+03  0.7546771E-02  0.1163656E+00
        2   -1    0    0  503    0 -0.00000000000E+00  0.00000000000E+00  0.12892765687E+05  0.12892765687E+05  0.00000000000E+00 0.  1.
       21   -1    0    0  501  502  0.00000000000E+00 -0.00000000000E+00 -0.75544305793E+02  0.75544305793E+02  0.00000000000E+00 0.  1.
       23    1    1    2    0    0 -0.84899897944E+01  0.44459538126E+01  0.12679126673E+05  0.12679458201E+05  0.91188000000E+02 0.  1.
       21    1    1    2  503  502  0.49467815435E+02  0.90448746654E+02 -0.14950617245E+02  0.10417082841E+03  0.00000000000E+00 0.  1.
        2    1    1    2  501    0 -0.40977825641E+02 -0.94894700466E+02  0.15304532581E+03  0.18468096307E+03  0.00000000000E+00 0.  1.
<scales pt_clust_3="100000.00000" pt_clust_4="100000.00000" pt_clust_5="103.07566"></scales>
<rwgt>
<wgt id='bias'>   0.1000000E+01</wgt>
</rwgt>
<clustering>
<clus scale="   91.690">  1  3  2 -1</clus>
<clus scale="  103.076">  1  5  2 -1</clus>
<clus scale="  103.076">  2  3  1 -1</clus>
</clustering>
</event>
<event>
 4   2  0.8512900E+003  0.9222328E+02  0.7546771E-02  0.1178016E+00
       -3   -1    0    0    0  501 -0.00000000000E+00  0.00000000000E+00  0.45910453164E+04  0.45910453164E+04  0.00000000000E+00 0.  1.
        3   -1    0    0  502    0  0.00000000000E+00 -0.00000000000E+00 -0.64166175456E+00  0.64166175456E+00  0.00000000000E+00 0. -1.
       23    1    1    2    0    0  0.11172879028E+02 -0.80652328946E+01  0.35729397797E+04  0.35741297964E+04  0.91188000000E+02 0. -1.
       21    1    1    2  502  501 -0.11172879028E+02  0.80652328946E+01  0.10174638749E+04  0.10175571817E+04  0.00000000000E+00 0. -1.
<scales pt_clust_3="100000.00000" pt_clust_4="13.77974"></scales>
<rwgt>
<wgt id='bias'>   0.1000000E+01</wgt>
</rwgt>
<clustering>
<clus scale="   13.780">  1  4  2 -1</clus>
<clus scale="   92.223">  2  3  1 -1</clus>
</clustering>
</event>
<event>
 5   3  0.8512900E+003  0.1864487E+03  0.7546771E-02  0.1065345E+00
       21   -1    0    0  503  502  0.00000000000E+00  0.00000000000E+00  0.46367783748E+03  0.46367783748E+03  0.00000000000E+00 0. -1.
       -1   -1    0    0    0  501 -0.00000000000E+00 -0.00000000000E+00 -0.48163950064E+02  0.48163950064E+02  0.00000000000E+00 0.  1.
       23    1    1    2    0    0  0.48504163650E+02 -0.49462638182E+02  0.71125107357E+02  0.13480815520E+03  0.91188000000E+02 0.  0.
       21    1    1    2  503  501  0.91696872649E+01  0.79491672548E+01  0.28261693876E+03  0.28287737008E+03  0.00000000000E+00 0. -1.
       -1    1    1    2    0  502 -0.57673850915E+02  0.41513470927E+02  0.61771841297E+02  0.94156262271E+02  0.00000000000E+00 0.  1.
<scales pt_clust_3="100000.00000" pt_clust_4="12.13559" pt_clust_5="100000.00000"></scales>
<rwgt>
<wgt id='bias'>   0.1000000E+01</wgt>
</rwgt>
<clustering>
<clus scale="   12.136">  1  4  2 -1</clus>
<clus scale="   70.040">  3  5 -1 -1</clus>
<clus scale="   12.136">  1  3  2 -1</clus>
</clustering>
</event>
<event>
 3   1  0.8512900E+003  0.9118800E+02  0.7546771E-02  0.1180022E+00
       -1   -1    0    0    0  501 -0.00000000000E+00  0.00000000000E+00  0.93660241859E+03  0.93660241859E+03  0.00000000000E+00 0.  1.
        1   -1    0    0  501    0  0.00000000000E+00 -0.00000000000E+00 -0.22195253768E+01  0.22195253768E+01  0.00000000000E+00 0. -1.
       23    1    1    2    0    0  0.00000000000E+00 -0.00000000000E+00  0.93438289321E+03  0.93882194396E+03  0.91188000000E+02 0.  1.
<scales pt_clust_3="100000.00000"></scales>
<rwgt>
<wgt id='bias'>   0.1000000E+01</wgt>
</rwgt>
<clustering>
<clus scale="   91.188">  2  3  1 -1</clus>
</clustering>
</event>
<event>
 3   1  0.8512900E+003  0.9118800E+02  0.7546771E-02  0.1180022E+00
        1   -1    0    0  501    0  0.00000000000E+00  0.00000000000E+00  0.71489767327E+04  0.71489767327E+04  0.00000000000E+00 0. -1.
       -1   -1    0    0    0  501 -0.00000000000E+00 -0.00000000000E+00 -0.29078466943E+00  0.29078466943E+00  0.00000000000E+00 0.  1.
       23    1    1    2    0    0  0.00000000000E+00  0.00000000000E+00  0.71486859480E+04  0.71492675174E+04  0.91188000000E+02 0. -1.
<scales pt_clust_3="100000.00000"></scales>
<rwgt>
<wgt id='bias'>   0.1000000E+01</wgt>
</rwgt>
<clustering>
<clus scale="   91.188">  1  3  2 -1</clus>
</clustering>
</event>
<event>
 4   2  0.8512900E+003  0.9283967E+02  0.7546771E-02  0.1176835E+00
        1   -1    0    0  502    0 -0.00000000000E+00  0.00000000000E+00  0.45501476794E+03  0.45501476794E+03  0.00000000000E+00 0. -1.
       21   -1    0    0  501  502  0.00000000000E+00 -0.00000000000E+00 -0.15890250002E+02  0.15890250002E+02  0.00000000000E+00 0. -1.
       23    1    1    2    0    0  0.10487287974E+01 -0.17402657624E+02  0.44334982262E+03  0.45296607918E+03  0.91188000000E+02 0. -1.
        1    1    1    2  501    0 -0.10487287974E+01  0.17402657624E+02 -0.42253046783E+01  0.17938938767E+02  0.00000000000E+00 0. -1.
<scales pt_clust_3="100000.00000" pt_clust_4="17.43423"></scales>
<rwgt>
<wgt id='bias'>   0.1000000E+01</wgt>
</rwgt>
<clustering>
<clus scale="   17.434">  2  4  1 -1</clus>
<clus scale="   17.434">  2  3  1 -1</clus>
</clustering>
</event>
<event>
 3   1  0.8512900E+003  0.9118800E+02  0.7546771E-02  0.1180022E+00
       -3   -1    0    0    0  501 -0.00000000000E+00  0.00000000000E+00  0.96991500885E+02  0.96991500885E+02  0.00000000000E+00 0.  1.
        3   -1    0    0  501    0  0.00000000000E+00 -0.00000000000E+00 -0.21432938113E+02  0.21432938113E+02  0.00000000000E+00 0. -1.
       23    1    1    2    0    0  0.00000000000E+00 -0.00000000000E+00  0.75558562772E+02  0.11842443900E+03  0.91188000000E+02 0.  1.
<scales pt_clust_3="100000.00000"></scales>
<rwgt>
<wgt id='bias'>   0.1000000E+01</wgt>
</rwgt>
<clustering>
<clus scale="   91.188">  2  3  1 -1</clus>
</clustering>
</event>
<event>
 4   2  0.8512900E+003  0.9228884E+02  0.7546771E-02  0.1177890E+00
        2   -1    0    0  502    0  0.00000000000E+00  0.00000000000E+00  0.67610337676E+01  0.67610337676E+01  0.00000000000E+00 0. -1.
       -2   -1    0    0    0  501 -0.00000000000E+00 -0.00000000000E+00 -0.45305117139E+03  0.45305117139E+03  0.00000000000E+00 0.  1.
       23    1    1    2    0    0  0.33516325589E+01 -0.13811081583E+02 -0.41899799537E+03  0.42904143260E+03  0.91188000000E+02 0.  0.
       21    1    1    2  502  501 -0.33516325589E+01  0.13811081583E+02 -0.27292142245E+02  0.30770772555E+02  0.00000000000E+00 0.  1.
<scales pt_clust_3="100000.00000" pt_clust_4="14.21195"></scales>
<rwgt>
<wgt id='bias'>   0.1000000E+01</wgt>
</rwgt>
<clustering>
<clus scale="   14.212">  1  4  2 -1</clus>
<clus scale="   14.212">  1  3  2 -1</clus>
</clustering>
</event>
<event>
 4   2  0.8512900E+003  0.2377255E+03  0.7546771E-02  0.1031378E+00
        1   -1    0    0  502    0 -0.00000000000E+00  0.00000000000E+00  0.98152758795E+02  0.98152758795E+02  0.00000000000E+00 0. -1.
       21   -1    0    0  501  502  0.00000000000E+00 -0.00000000000E+00 -0.14394251180E+03  0.14394251180E+03  0.00000000000E+00 0. -1.
       23    1    1    2    0    0  0.22899446005E+02 -0.49146570709E+02  0.60966201924E+02  0.12235971216E+03  0.91188000000E+02 0. -1.
        1    1    1    2  501    0 -0.22899446005E+02  0.49146570709E+02 -0.10675595493E+03  0.11973555843E+03  0.00000000000E+00 0. -1.
<scales pt_clust_3="100000.00000" pt_clust_4="100000.00000"></scales>
<rwgt>
<wgt id='bias'>   0.1000000E+01</wgt>
</rwgt>
<clustering>
<clus scale="   54.220">  3  4 -1 -1</clus>
<clus scale="  237.726">  2  3  1 -1</clus>
</clustering>
</event>
<event>
 3   1  0.8512900E+003  0.9118800E+02  0.7546771E-02  0.1180022E+00
       -3   -1    0    0    0  501 -0.00000000000E+00  0.00000000000E+00  0.45837446424E+02  0.45837446424E+02  0.00000000000E+00 0.  1.
        3   -1    0    0  501    0  0.00000000000E+00 -0.00000000000E+00 -0.45351846540E+02  0.45351846540E+02  0.00000000000E+00 0. -1.
       23    1    1    2    0    0  0.00000000000E+00 -0.00000000000E+00  0.48559988417E+00  0.91189292964E+02  0.91188000000E+02 0.  1.
<scales pt_clust_3="100000.00000"></scales>
<rwgt>
<wgt id='bias'>   0.1000000E+01</wgt>
</rwgt>
<clustering>
<clus scale="   91.188">  2  3  1 -1</clus>
</clustering>
</event>
<event>
 4   2  0.8512900E+003  0.9227286E+02  0.7546771E-02  0.1177920E+00
       -1   -1    0    0    0  501 -0.00000000000E+00  0.00000000000E+00  0.15237112784E+01  0.15237112784E+01  0.00000000000E+00 0.  1.
       21   -1    0    0  501  502  0.00000000000E+00 -0.00000000000E+00 -0.18591889409E+04  0.18591889409E+04  0.00000000000E+00 0. -1.
       23    1    1    2    0    0  0.11238005909E+02  0.85285303978E+01 -0.15877309349E+04  0.15904099477E+04  0.91188000000E+02 0.  1.
       -1    1    1    2    0  502 -0.11238005909E+02 -0.85285303978E+01 -0.26993429472E+03  0.27030270453E+03  0.00000000000E+00 0.  1.
<scales pt_clust_3="100000.00000" pt_clust_4="14.10775"></scales>
<rwgt>
<wgt id='bias'>   0.1000000E+01</wgt>
</rwgt>
<clustering>
<clus scale="   14.108">  2  4  1 -1</clus>
<clus scale="   14.108">  2  3  1 -1</clus>
</clustering>
</event>
<event>
 3   1  0.8512900E+003  0.9118800E+02  0.7546771E-02  0.1180022E+00
        1   -1    0    0  501    0  0.00000000000E+00  0.00000000000E+00  0.99107083219E+00  0.99107083219E+00  0.00000000000E+00 0. -1.
       -1   -1    0    0    0  501 -0.00000000000E+00 -0.00000000000E+00 -0.20975421418E+04  0.20975421418E+04  0.00000000000E+00 0.  1.
       23    1    1    2    0    0  0.00000000000E+00  0.00000000000E+00 -0.20965510709E+04  0.20985332126E+04  0.91188000000E+02 0. -1.
<scales pt_clust_3="100000.00000"></scales>
<rwgt>
<wgt id='bias'>   0.1000000E+01</wgt>
</rwgt>
<clustering>
<clus scale="   91.188">  1  3  2 -1</clus>
</clustering>
</event>
<event>
 3   1  0.8512900E+003  0.9118800E+02  0.7546771E-02  0.1180022E+00
        1   -1    0    0  501    0  0.00000000000E+00  0.00000000000E+00  0.93828700037E+03  0.93828700037E+03  0.00000000000E+00 0. -1.
       -1   -1    0    0    0  501 -0.00000000000E+00 -0.00000000000E+00 -0.22155404851E+01  0.22155404851E+01  0.00000000000E+00 0.  1.
       23    1    1    2    0    0  0.00000000000E+00  0.00000000000E+00  0.93607145989E+03  0.94050254086E+03  0.91188000000E+02 0. -1.
<scales pt_clust_3="100000.00000"></scales>
<rwgt>
<wgt id='bias'>   0.1000000E+01</wgt>
</rwgt>
<clustering>
<clus scale="   91.188">  1  3  2 -1</clus>
</clustering>
</event>
<event>
 4   2  0.8512900E+003  0.1204644E+03  0.7546771E-02  0.1132508E+00
       21   -1    0    0  501  502  0.00000000000E+00  0.00000000000E+00  0.48805949725E+02  0.48805949725E+02  0.00000000000E+00 0.  1.
        5   -1    0    0  502    0 -0.00000000000E+00 -0.00000000000E+00 -0.74333532349E+02  0.74333532349E+02  0.00000000000E+00 0. -1.
       23    1    1    2    0    0 -0.11156083495E+02 -0.23160808678E+02 -0.20856204121E+02  0.97010895532E+02  0.91188000000E+02 0.  0.
        5    1    1    2  501    0  0.11156083495E+02  0.23160808678E+02 -0.46713785038E+01  0.26128586543E+02  0.00000000000E+00 0. -1.
<scales pt_clust_3="100000.00000" pt_clust_4="100000.00000"></scales>
<rwgt>
<wgt id='bias'>   0.1000000E+01</wgt>
</rwgt>
<clustering>
<clus scale="   25.708">  3  4 -1 -1</clus>
<clus scale="  120.464">  1  3  2 -1</clus>
</clustering>
</event>
<event>
 4   2  0.8512900E+003  0.9378438E+02  0.7546771E-02  0.1175045E+00
       -2   -1    0    0    0  501 -0.00000000000E+00  0.00000000000E+00  0.67100556467E+00  0.67100556467E+00  0.00000000000E+00 0.  1.
        2   -1    0    0  502    0  0.00000000000E+00 -0.00000000000E+00 -0.50535692709E+04  0.50535692709E+04  0.00000000000E+00 0. -1.
       23    1    1    2    0    0 -0.30569755008E+01 -0.21700523316E+02 -0.38477283816E+04  0.38488711602E+04  0.91188000000E+02 0.  0.
       21    1    1    2  502  501  0.30569755008E+01  0.21700523316E+02 -0.12051698837E+04  0.12053691163E+04  0.00000000000E+00 0.  1.
<scales pt_clust_3="100000.00000" pt_clust_4="21.91479"></scales>
<rwgt>
<wgt id='bias'>   0.1000000E+01</wgt>
</rwgt>
<clustering>
<clus scale="   21.915">  2  4  1 -1</clus>
<clus scale="   21.915">  2  3  1 -1</clus>
</clustering>
</event>
<event>
 3   1  0.8512900E+003  0.9118800E+02  0.7546771E-02  0.1180022E+00
       -3   -1    0    0    0  501 -0.00000000000E+00  0.00000000000E+00  0.50446870725E+02  0.50446870725E+02  0.00000000000E+00 0.  1.
        3   -1    0    0  501    0  0.00000000000E+00 -0.00000000000E+00 -0.41207964064E+02  0.41207964064E+02  0.00000000000E+00 0. -1.
       23    1    1    2    0    0  0.00000000000E+00 -0.00000000000E+00  0.92389066611E+01  0.91654834790E+02  0.91188000000E+02 0.  1.
<scales pt_clust_3="100000.00000"></scales>
<rwgt>
<wgt id='bias'>   0.1000000E+01</wgt>
</rwgt>
<clustering>
<clus scale="   91.188">  2  3  1 -1</clus>
</clustering>
</event>
<event>
 3   1  0.8512900E+003  0.9118800E+02  0.7546771E-02  0.1180022E+00
        2   -1    0    0  501    0  0.00000000000E+00  0.00000000000E+00  0.54530700056E+03  0.54530700056E+03  0.00000000000E+00 0. -1.
       -2   -1    0    0    0  501 -0.00000000000E+00 -0.00000000000E+00 -0.38121880590E+01  0.38121880590E+01  0.00000000000E+00 0.  1.
       23    1    1    2    0    0  0.00000000000E+00  0.00000000000E+00  0.54149481250E+03  0.54911918862E+03  0.91188000000E+02 0. -1.
<scales pt_clust_3="100000.00000"></scales>
<rwgt>
<wgt id='bias'>   0.1000000E+01</wgt>
</rwgt>
<clustering>
<clus scale="   91.188">  1  3  2 -1</clus>
</clustering>
</event>
<event>
 5   3  0.8512900E+003  0.1013317E+03  0.7546771E-02  0.1161551E+00
       21   -1    0    0  501  502  0.00000000000E+00  0.00000000000E+00  0.24271071814E+04  0.24271071814E+04  0.00000000000E+00 0. -1.
       -5   -1    0    0    0  501 -0.00000000000E+00 -0.00000000000E+00 -0.38966369889E+01  0.38966369889E+01  0.00000000000E+00 0. -1.
       23    1    1    2    0    0  0.41391013556E+02 -0.15480227422E+02  0.72127687302E+03  0.72836009799E+03  0.91188000000E+02 0. -1.
       21    1    1    2  503  502 -0.18995939754E+02 -0.40173334631E+01  0.71365846129E+03  0.71392253366E+03  0.00000000000E+00 0. -1.
       -5    1    1    2    0  503 -0.22395073802E+02  0.19497560885E+02  0.98827521012E+03  0.98872118676E+03  0.00000000000E+00 0. -1.
<scales pt_clust_3="100000.00000" pt_clust_4="17.42906" pt_clust_5="49.16723"></scales>
<rwgt>
<wgt id='bias'>   0.1000000E+01</wgt>
</rwgt>
<clustering>
<clus scale="   17.429">  4  5 -1 -1</clus>
<clus scale="   49.167">  1  4  2 -1</clus>
<clus scale="   49.167">  1  3  2 -1</clus>
</clustering>
</event>
<event>
 4   2  0.8512900E+003  0.9176229E+02  0.7546771E-02  0.1178905E+00
        1   -1    0    0  502    0 -0.00000000000E+00  0.00000000000E+00  0.16218673763E+02  0.16218673763E+02  0.00000000000E+00 0. -1.
       21   -1    0    0  501  502  0.00000000000E+00 -0.00000000000E+00 -0.20671287212E+03  0.20671287212E+03  0.00000000000E+00 0. -1.
       23    1    1    2    0    0 -0.57819821345E+01  0.84638101831E+01 -0.11683334082E+03  0.14856092444E+03  0.91188000000E+02 0. -1.
        1    1    1    2  501    0  0.57819821345E+01 -0.84638101831E+01 -0.73660857537E+02  0.74370621439E+02  0.00000000000E+00 0. -1.
<scales pt_clust_3="100000.00000" pt_clust_4="10.25024"></scales>
<rwgt>
<wgt id='bias'>   0.1000000E+01</wgt>
</rwgt>
<clustering>
<clus scale="   10.250">  2  4  1 -1</clus>
<clus scale="   10.250">  2  3  1 -1</clus>
</clustering>
</event>
<event>
 5   3  0.8512900E+003  0.6888394E+02  0.7546771E-02  0.1141203E+00
        1   -1    0    0  503    0 -0.00000000000E+00  0.00000000000E+00  0.99423813078E+01  0.99423813078E+01  0.00000000000E+00 0. -1.
       21   -1    0    0  501  502  0.00000000000E+00 -0.00000000000E+00 -0.12791787407E+04  0.12791787407E+04  0.00000000000E+00 0.  1.
       23    1    1    2    0    0  0.56814818448E+02 -0.26921628800E+02 -0.91783129179E+03  0.92449025373E+03  0.91188000000E+02 0.  1.
       21    1    1    2  503  502  0.11180005257E+02 -0.90111786294E+01 -0.21317227373E+02  0.25702490944E+02  0.00000000000E+00 0.  1.
        1    1    1    2  501    0 -0.67994823706E+02  0.35932807429E+02 -0.33008784020E+03  0.33892837731E+03  0.00000000000E+00 0. -1.
<scales pt_clust_3="100000.00000" pt_clust_4="14.35945" pt_clust_5="68.88394"></scales>
<rwgt>
<wgt id='bias'>   0.1000000E+01</wgt>
</rwgt>
<clustering>
<clus scale="   14.359">  1  4  2 -1</clus>
<clus scale="   68.884">  2  5  1 -1</clus>
<clus scale="   68.884">  2  3  1 -1</clus>
</clustering>
</event>
<event>
 5   3  0.8512900E+003  0.2195132E+03  0.7546771E-02  0.1042276E+00
        2   -1    0    0  502    0  0.00000000000E+00  0.00000000000E+00  0.80606430650E+03  0.80606430650E+03  0.00000000000E+00 0. -1.
        5   -1    0    0  501    0 -0.00000000000E+00 -0.00000000000E+00 -0.51775366579E+02  0.51775366579E+02  0.00000000000E+00 0.  1.
       23    1    1    2    0    0  0.21863501694E+02 -0.26907286263E+02  0.78254821336E+03  0.78860571411E+03  0.91188000000E+02 0. -1.
        2    1    1    2  501    0 -0.77322685761E+01  0.29195136666E+02  0.71533991562E+01  0.31037317890E+02  0.00000000000E+00 0. -1.
        5    1    1    2  502    0 -0.14131233118E+02 -0.22878504037E+01 -0.35412672595E+02  0.38196641073E+02  0.00000000000E+00 0.  1.
<scales pt_clust_3="100000.00000" pt_clust_4="100000.00000" pt_clust_5="14.31524"></scales>
<rwgt>
<wgt id='bias'>   0.1000000E+01</wgt>
</rwgt>
<clustering>
<clus scale="   14.315">  2  5  1 -1</clus>
<clus scale="   33.321">  3  4 -1 -1</clus>
<clus scale="  219.513">  1  3  2 -1</clus>
</clustering>
</event>
<event>
 4   2  0.8512900E+003  0.9454593E+02  0.7546771E-02  0.1173620E+00
       21   -1    0    0  501  502  0.00000000000E+00  0.00000000000E+00  0.34218373744E+00  0.34218373744E+00  0.00000000000E+00 0.  1.
        1   -1    0    0  502    0 -0.00000000000E+00 -0.00000000000E+00 -0.11181520879E+05  0.11181520879E+05  0.00000000000E+00 0. -1.
       23    1    1    2    0    0 -0.24506496669E+02 -0.48076206720E+01 -0.98213268621E+04  0.98217819292E+04  0.91188000000E+02 0. -1.
        1    1    1    2  501    0  0.24506496669E+02  0.48076206720E+01 -0.13598518335E+04  0.13600811338E+04  0.00000000000E+00 0. -1.
<scales pt_clust_3="100000.00000" pt_clust_4="24.97362"></scales>
<rwgt>
<wgt id='bias'>   0.1000000E+01</wgt>
</rwgt>
<clustering>
<clus scale="   24.974">  1  4  2 -1</clus>
<clus scale="   24.974">  1  3  2 -1</clus>
</clustering>
</event>
<event>
 3   1  0.8512900E+003  0.9118800E+02  0.7546771E-02  0.1180022E+00
       -4   -1    0    0    0  501 -0.00000000000E+00  0.00000000000E+00  0.26169134386E+02  0.26169134386E+02  0.00000000000E+00 0. -1.
        4   -1    0    0  501    0  0.00000000000E+00 -0.00000000000E+00 -0.79437584956E+02  0.79437584956E+02  0.00000000000E+00 0.  1.
       23    1    1    2    0    0  0.00000000000E+00 -0.00000000000E+00 -0.53268450571E+02  0.10560671934E+03  0.91188000000E+02 0. -1.
<scales pt_clust_3="100000.00000"></scales>
<rwgt>
<wgt id='bias'>   0.1000000E+01</wgt>
</rwgt>
<clustering>
<clus scale="   91.188">  2  3  1 -1</clus>
</clustering>
</event>
<event>
 4   2  0.8512900E+003  0.9992051E+02  0.7546771E-02  0.1163972E+00
       -5   -1    0    0    0  501 -0.00000000000E+00  0.00000000000E+00  0.24093230552E+03  0.24093230552E+03  0.00000000000E+00 0.  1.
        5   -1    0    0  502    0  0.00000000000E+00 -0.00000000000E+00 -0.20614403968E+02  0.20614403968E+02  0.00000000000E+00 0. -1.
       23    1    1    2    0    0 -0.30528814995E+02 -0.27144963947E+02  0.15031547874E+03  0.18049612768E+03  0.91188000000E+02 0.  1.
       21    1    1    2  502  501  0.30528814995E+02  0.27144963947E+02  0.70002422806E+02  0.81050581808E+02  0.00000000000E+00 0. -1.
<scales pt_clust_3="100000.00000" pt_clust_4="40.85165"></scales>
<rwgt>
<wgt id='bias'>   0.1000000E+01</wgt>
</rwgt>
<clustering>
<clus scale="   40.852">  1  4  2 -1</clus>
<clus scale="   99.921">  2  3  1 -1</clus>
</clustering>
</event>
<event>
 3   1  0.8512900E+003  0.9118800E+02  0.7546771E-02  0.1180022E+00
       -1   -1    0    0    0  501 -0.00000000000E+00  0.00000000000E+00  0.20390116492E+00  0.20390116492E+00  0.00000000000E+00 0.  1.
        1   -1    0    0  501    0  0.00000000000E+00 -0.00000000000E+00 -0.10195198428E+05  0.10195198428E+05  0.00000000000E+00 0. -1.
       23    1    1    2    0    0  0.00000000000E+00 -0.00000000000E+00 -0.10194994527E+05  0.10195402329E+05  0.91188000000E+02 0.  1.
<scales pt_clust_3="100000.00000"></scales>
<rwgt>
<wgt id='bias'>   0.1000000E+01</wgt>
</rwgt>
<clustering>
<clus scale="   91.188">  2  3  1 -1</clus>
</clustering>
</event>
<event>
 3   1  0.8512900E+003  0.9118800E+02  0.7546771E-02  0.1180022E+00
       -2   -1    0    0    0  501 -0.00000000000E+00  0.00000000000E+00  0.77508422419E+00  0.77508422419E+00  0.00000000000E+00 0.  1.
        2   -1    0    0  501    0  0.00000000000E+00 -0.00000000000E+00 -0.26820476680E+04  0.26820476680E+04  0.00000000000E+00 0. -1.
       23    1    1    2    0    0  0.00000000000E+00 -0.00000000000E+00 -0.26812725838E+04  0.26828227522E+04  0.91188000000E+02 0.  1.
<scales pt_clust_3="100000.00000"></scales>
<rwgt>
<wgt id='bias'>   0.1000000E+01</wgt>
</rwgt>
<clustering>
<clus scale="   91.188">  2  3  1 -1</clus>
</clustering>
</event>
<event>
 5   3  0.8512900E+003  0.2160167E+02  0.7546771E-02  0.1175182E+00
       -2   -1    0    0    0  501 -0.00000000000E+00  0.00000000000E+00  0.16113445451E+01  0.16113445451E+01  0.00000000000E+00 0.  1.
        2   -1    0    0  503    0  0.00000000000E+00 -0.00000000000E+00 -0.56707325792E+04  0.56707325792E+04  0.00000000000E+00 0. -1.
       23    1    1    2    0    0 -0.29002248896E+02  0.10706093961E+02 -0.36558740540E+04  0.36571417939E+04  0.91188000000E+02 0. -1.
       21    1    1    2  502  501  0.17468416180E+02 -0.12242587091E+02 -0.11758385020E+03  0.11950308921E+03  0.00000000000E+00 0.  1.
       21    1    1    2  503  502  0.11533832716E+02  0.15364931295E+01 -0.18956633304E+04  0.18956990406E+04  0.00000000000E+00 0. -1.
<scales pt_clust_3="100000.00000" pt_clust_4="21.60167" pt_clust_5="11.63573"></scales>
<rwgt>
<wgt id='bias'>   0.1000000E+01</wgt>
</rwgt>
<clustering>
<clus scale="   11.636">  2  5  1 -1</clus>
<clus scale="   21.602">  1  4  2 -1</clus>
<clus scale="   11.636">  2  3  1 -1</clus>
</clustering>
</event>
<event>
 3   1  0.8512900E+003  0.9118800E+02  0.7546771E-02  0.1180022E+00
        5   -1    0    0  501    0  0.00000000000E+00  0.00000000000E+00  0.13228309503E+02  0.13228309503E+02  0.00000000000E+00 0. -1.
       -5   -1    0    0    0  501 -0.00000000000E+00 -0.00000000000E+00 -0.15714879029E+03  0.15714879029E+03  0.00000000000E+00 0.  1.
       23    1    1    2    0    0  0.00000000000E+00  0.00000000000E+00 -0.14392048079E+03  0.17037709980E+03  0.91188000000E+02 0. -1.
<scales pt_clust_3="100000.00000"></scales>
<rwgt>
<wgt id='bias'>   0.1000000E+01</wgt>
</rwgt>
<clustering>
<clus scale="   91.188">  1  3  2 -1</clus>
</clustering>
</event>
<event>
 5   3  0.8512900E+003  0.9562363E+02  0.7546771E-02  0.1171629E+00
       21   -1    0    0  501  502  0.00000000000E+00  0.00000000000E+00  0.11287724214E+04  0.11287724214E+04  0.00000000000E+00 0. -1.
        5   -1    0    0  503    0 -0.00000000000E+00 -0.00000000000E+00 -0.43291389873E+01  0.43291389873E+01  0.00000000000E+00 0. -1.
       23    1    1    2    0    0 -0.86316963938E+01 -0.16668185706E+02  0.75834084685E+03  0.76403430940E+03  0.91188000000E+02 0. -1.
       21    1    1    2  503  502 -0.11967704876E+02 -0.76352744194E+01  0.14274080910E+03  0.14344497886E+03  0.00000000000E+00 0. -1.
        5    1    1    2  501    0  0.20599401270E+02  0.24303460126E+02  0.22336162650E+03  0.22562227217E+03  0.00000000000E+00 0. -1.
<scales pt_clust_3="100000.00000" pt_clust_4="14.19589" pt_clust_5="28.78588"></scales>
<rwgt>
<wgt id='bias'>   0.1000000E+01</wgt>
</rwgt>
<clustering>
<clus scale="   14.196">  1  4  2 -1</clus>
<clus scale="   28.786">  1  5  2 -1</clus>
<clus scale="   14.196">  1  3  2 -1</clus>
</clustering>
</event>
<event>
 3   1  0.8512900E+003  0.9118800E+02  0.7546771E-02  0.1180022E+00
       -4   -1    0    0    0  501 -0.00000000000E+00  0.00000000000E+00  0.14435945330E+02  0.14435945330E+02  0.00000000000E+00 0.  1.
        4   -1    0    0  501    0  0.00000000000E+00 -0.00000000000E+00 -0.14400254285E+03  0.14400254285E+03  0.00000000000E+00 0. -1.
       23    1    1    2    0    0  0.00000000000E+00 -0.00000000000E+00 -0.12956659752E+03  0.15843848818E+03  0.91188000000E+02 0.  1.
<scales pt_clust_3="100000.00000"></scales>
<rwgt>
<wgt id='bias'>   0.1000000E+01</wgt>
</rwgt>
<clustering>
<clus scale="   91.188">  2  3  1 -1</clus>
</clustering>
</event>
<event>
 4   2  0.8512900E+003  0.1073420E+03  0.7546771E-02  0.1151711E+00
       -3   -1    0    0    0  501 -0.00000000000E+00  0.00000000000E+00  0.15371068739E+04  0.15371068739E+04  0.00000000000E+00 0. -1.
       21   -1    0    0  501  502  0.00000000000E+00 -0.00000000000E+00 -0.53783776687E+01  0.53783776687E+01  0.00000000000E+00 0. -1.
       23    1    1    2    0    0 -0.37469269789E+02 -0.42463050412E+02  0.12786650658E+04  0.12831627561E+04  0.91188000000E+02 0. -1.
       -3    1    1    2    0  502  0.37469269789E+02  0.42463050412E+02  0.25306343044E+03  0.25932249547E+03  0.00000000000E+00 0. -1.
<scales pt_clust_3="100000.00000" pt_clust_4="56.63088"></scales>
<rwgt>
<wgt id='bias'>   0.1000000E+01</wgt>
</rwgt>
<clustering>
<clus scale="   56.631">  2  4  1 -1</clus>
<clus scale="   56.631">  2  3  1 -1</clus>
</clustering>
</event>
<event>
 3   1  0.8512900E+003  0.9118800E+02  0.7546771E-02  0.1180022E+00
        4   -1    0    0  501    0  0.00000000000E+00  0.00000000000E+00  0.55244281583E+01  0.55244281583E+01  0.00000000000E+00 0.  1.
       -4   -1    0    0    0  501 -0.00000000000E+00 -0.00000000000E+00 -0.37629466371E+03  0.37629466371E+03  0.00000000000E+00 0. -1.
       23    1    1    2    0    0  0.00000000000E+00  0.00000000000E+00 -0.37077023555E+03  0.38181909186E+03  0.91188000000E+02 0.  1.
<scales pt_clust_3="100000.00000"></scales>
<rwgt>
<wgt id='bias'>   0.1000000E+01</wgt>
</rwgt>
<clustering>
<clus scale="   91.188">  1  3  2 -1</clus>
</clustering>
</event>
<event>
 3   1  0.8512900E+003  0.9118800E+02  0.7546771E-02  0.1180022E+00
        5   -1    0    0  501    0  0.00000000000E+00  0.00000000000E+00  0.49333896359E+03  0.49333896359E+03  0.00000000000E+00 0. -1.
       -5   -1    0    0    0  501 -0.00000000000E+00 -0.00000000000E+00 -0.42137617124E+01  0.42137617124E+01  0.00000000000E+00 0.  1.
       23    1    1    2    0    0  0.00000000000E+00  0.00000000000E+00  0.48912520188E+03  0.49755272530E+03  0.91188000000E+02 0. -1.
<scales pt_clust_3="100000.00000"></scales>
<rwgt>
<wgt id='bias'>   0.1000000E+01</wgt>
</rwgt>
<clustering>
<clus scale="   91.188">  1  3  2 -1</clus>
</clustering>
</event>
<event>
 5   3  0.8512900E+003  0.9818330E+02  0.7546771E-02  0.1167015E+00
        3   -1    0    0  502    0 -0.00000000000E+00  0.00000000000E+00  0.81791159040E+03  0.81791159040E+03  0.00000000000E+00 0. -1.
       21   -1    0    0  503  502  0.00000000000E+00 -0.00000000000E+00 -0.12399216357E+02  0.12399216357E+02  0.00000000000E+00 0.  1.
       23    1    1    2    0    0 -0.15690861775E+01 -0.72790027131E+01  0.76984255635E+03  0.77526012333E+03  0.91188000000E+02 0. -1.
       21    1    1    2  503  501  0.38279684458E+01  0.13293337787E+02 -0.43633048587E+01  0.14505330098E+02  0.00000000000E+00 0.  1.
        3    1    1    2  501    0 -0.22588822683E+01 -0.60143350743E+01  0.40033122546E+02  0.40545353325E+02  0.00000000000E+00 0. -1.
<scales pt_clust_3="100000.00000" pt_clust_4="13.83352" pt_clust_5="100000.00000"></scales>
<rwgt>
<wgt id='bias'>   0.1000000E+01</wgt>
</rwgt>
<clustering>
<clus scale="    6.425">  3  5 -1 -1</clus>
<clus scale="   13.834">  2  4  1 -1</clus>
<clus scale="   13.834">  2  3  1 -1</clus>
</clustering>
</event>
<event>
 3   1  0.8512900E+003  0.9118800E+02  0.7546771E-02  0.1180022E+00
        1   -1    0    0  501    0  0.00000000000E+00  0.00000000000E+00  0.10947098889E+04  0.10947098889E+04  0.00000000000E+00 0. -1.
       -1   -1    0    0    0  501 -0.00000000000E+00 -0.00000000000E+00 -0.18989623251E+01  0.18989623251E+01  0.00000000000E+00 0.  1.
       23    1    1    2    0    0  0.00000000000E+00  0.00000000000E+00  0.10928109266E+04  0.10966088513E+04  0.91188000000E+02 0. -1.
<scales pt_clust_3="100000.00000"></scales>
<rwgt>
<wgt id='bias'>   0.1000000E+01</wgt>
</rwgt>
<clustering>
<clus scale="   91.188">  1  3  2 -1</clus>
</clustering>
</event>
<event>
 5   3  0.8512900E+003  0.9196754E+02  0.7546771E-02  0.1178509E+00
       21   -1    0    0  503  502  0.00000000000E+00  0.00000000000E+00  0.13102377114E+03  0.13102377114E+03  0.00000000000E+00 0. -1.
        1   -1    0    0  502    0 -0.00000000000E+00 -0.00000000000E+00 -0.62480407599E+02  0.62480407599E+02  0.00000000000E+00 0. -1.
       23    1    1    2    0    0 -0.11088843808E+02 -0.20931639394E+01 -0.23830233992E+02  0.94923522840E+02  0.91188000000E+02 0. -1.
       21    1    1    2  503  501  0.69003249401E+01 -0.13199552063E+02  0.67191151163E+02  0.68822187219E+02  0.00000000000E+00 0. -1.
        1    1    1    2  501    0  0.41885188677E+01  0.15292716002E+02  0.25182446371E+02  0.29758468681E+02  0.00000000000E+00 0. -1.
<scales pt_clust_3="100000.00000" pt_clust_4="14.89438" pt_clust_5="11.94896"></scales>
<rwgt>
<wgt id='bias'>   0.1000000E+01</wgt>
</rwgt>
<clustering>
<clus scale="   14.894">  1  4  2 -1</clus>
<clus scale="   11.949">  1  5  2 -1</clus>
<clus scale="   14.894">  1  3  2 -1</clus>
</clustering>
</event>
<event>
 3   1  0.8512900E+003  0.9118800E+02  0.7546771E-02  0.1180022E+00
       -1   -1    0    0    0  501 -0.00000000000E+00  0.00000000000E+00  0.55735640622E+01  0.55735640622E+01  0.00000000000E+00 0.  1.
        1   -1    0    0  501    0  0.00000000000E+00 -0.00000000000E+00 -0.37297729295E+03  0.37297729295E+03  0.00000000000E+00 0. -1.
       23    1    1    2    0    0  0.00000000000E+00 -0.00000000000E+00 -0.36740372889E+03  0.37855085701E+03  0.91188000000E+02 0.  1.
<scales pt_clust_3="100000.00000"></scales>
<rwgt>
<wgt id='bias'>   0.1000000E+01</wgt>
</rwgt>
<clustering>
<clus scale="   91.188">  2  3  1 -1</clus>
</clustering>
</event>
<event>
 3   1  0.8512900E+003  0.9118800E+02  0.7546771E-02  0.1180022E+00
        4   -1    0    0  501    0  0.00000000000E+00  0.00000000000E+00  0.31105855160E+04  0.31105855160E+04  0.00000000000E+00 0. -1.
       -4   -1    0    0    0  501 -0.00000000000E+00 -0.00000000000E+00 -0.66830274406E+00  0.66830274406E+00  0.00000000000E+00 0.  1.
       23    1    1    2    0    0  0.00000000000E+00  0.00000000000E+00  0.31099172133E+04  0.31112538188E+04  0.91188000000E+02 0. -1.
<scales pt_clust_3="100000.00000"></scales>
<rwgt>
<wgt id='bias'>   0.1000000E+01</wgt>
</rwgt>
<clustering>
<clus scale="   91.188">  1  3  2 -1</clus>
</clustering>
</event>
<event>
 4   2  0.8512900E+003  0.9241803E+02  0.7546771E-02  0.1177642E+00
       -1   -1    0    0    0  501 -0.00000000000E+00  0.00000000000E+00  0.48190011624E+03  0.48190011624E+03  0.00000000000E+00 0.  1.
       21   -1    0    0  501  502  0.00000000000E+00 -0.00000000000E+00 -0.75336351733E+01  0.75336351733E+01  0.00000000000E+00 0. -1.
       23    1    1    2    0    0 -0.14886897710E+02 -0.20547068946E+01  0.45793007204E+03  0.46716275939E+03  0.91188000000E+02 0.  1.
       -1    1    1    2    0  502  0.14886897710E+02  0.20547068946E+01  0.16436409036E+02  0.22270992026E+02  0.00000000000E+00 0.  1.
<scales pt_clust_3="100000.00000" pt_clust_4="15.02803"></scales>
<rwgt>
<wgt id='bias'>   0.1000000E+01</wgt>
</rwgt>
<clustering>
<clus scale="   15.028">  2  4  1 -1</clus>
<clus scale="   15.028">  2  3  1 -1</clus>
</clustering>
</event>
<event>
 3   1  0.8512900E+003  0.9118800E+02  0.7546771E-02  0.1180022E+00
       -2   -1    0    0    0  501 -0.00000000000E+00  0.00000000000E+00  0.88396516410E+01  0.88396516410E+01  0.00000000000E+00 0.  1.
        2   -1    0    0  501    0  0.00000000000E+00 -0.00000000000E+00 -0.23516909042E+03  0.23516909042E+03  0.00000000000E+00 0. -1.
       23    1    1    2    0    0  0.00000000000E+00 -0.00000000000E+00 -0.22632943877E+03  0.24400874206E+03  0.91188000000E+02 0.  1.
<scales pt_clust_3="100000.00000"></scales>
<rwgt>
<wgt id='bias'>   0.1000000E+01</wgt>
</rwgt>
<clustering>
<clus scale="   91.188">  2  3  1 -1</clus>
</clustering>
</event>
<event>
 3   1  0.8512900E+003  0.9118800E+02  0.7546771E-02  0.1180022E+00
       -1   -1    0    0    0  501 -0.00000000000E+00  0.00000000000E+00  0.38063623773E+02  0.38063623773E+02  0.00000000000E+00 0.  1.
        1   -1    0    0  501    0  0.00000000000E+00 -0.00000000000E+00 -0.54614159923E+02  0.54614159923E+02  0.00000000000E+00 0. -1.
       23    1    1    2    0    0  0.00000000000E+00 -0.00000000000E+00 -0.16550536150E+02  0.92677783696E+02  0.91188000000E+02 0.  1.
<scales pt_clust_3="100000.00000"></scales>
<rwgt>
<wgt id='bias'>   0.1000000E+01</wgt>
</rwgt>
<clustering>
<clus scale="   91.188">  2  3  1 -1</clus>
</clustering>
</event>
<event>
 5   3  0.8512900E+003  0.1795504E+03  0.7546771E-02  0.1070818E+00
       21   -1    0    0  503  502  0.00000000000E+00  0.00000000000E+00  0.13522387343E+03  0.13522387343E+03  0.00000000000E+00 0. -1.
        2   -1    0    0  502    0 -0.00000000000E+00 -0.00000000000E+00 -0.36958825460E+03  0.36958825460E+03  0.00000000000E+00 0. -1.
       23    1    1    2    0    0 -0.28759950806E+02 -0.36031174777E+02 -0.34377862379E+03  0.35864240386E+03  0.91188000000E+02 0. -1.
       21    1    1    2  503  501  0.28272151112E+02  0.50638523963E+01  0.11148885539E+03  0.11512915359E+03  0.00000000000E+00 0. -1.
        2    1    1    2  501    0  0.48779969383E+00  0.30967322380E+02 -0.20746127719E+01  0.31040570583E+02  0.00000000000E+00 0. -1.
<scales pt_clust_3="100000.00000" pt_clust_4="28.72207" pt_clust_5="100000.00000"></scales>
<rwgt>
<wgt id='bias'>   0.1000000E+01</wgt>
</rwgt>
<clustering>
<clus scale="   28.722">  1  4  2 -1</clus>
<clus scale="   39.307">  3  5 -1 -1</clus>
<clus scale="   28.722">  1  3  2 -1</clus>
</clustering>
</event>
<event>
 5   3  0.8512900E+003  0.9248497E+02  0.7546771E-02  0.1177513E+00
       21   -1    0    0  503  502  0.00000000000E+00  0.00000000000E+00  0.22598818771E+02  0.22598818771E+02  0.00000000000E+00 0. -1.
       -5   -1    0    0    0  501 -0.00000000000E+00 -0.00000000000E+00 -0.30426138428E+03  0.30426138428E+03  0.00000000000E+00 0.  1.
       23    1    1    2    0    0 -0.14716396278E+02 -0.77964277443E+01 -0.27311869050E+03  0.28842057321E+03  0.91188000000E+02 0.  1.
       21    1    1    2  503  501  0.15996935445E+02 -0.56756969175E+01  0.65259980686E+01  0.18185272336E+02  0.00000000000E+00 0. -1.
       -5    1    1    2    0  502 -0.12805391674E+01  0.13472124662E+02 -0.15069873080E+02  0.20254357509E+02  0.00000000000E+00 0.  1.
<scales pt_clust_3="100000.00000" pt_clust_4="15.43432" pt_clust_5="13.53285"></scales>
<rwgt>
<wgt id='bias'>   0.1000000E+01</wgt>
</rwgt>
<clustering>
<clus scale="   13.533">  1  5  2 -1</clus>
<clus scale="   15.434">  1  4  2 -1</clus>
<clus scale="   13.533">  1  3  2 -1</clus>
</clustering>
</event>
<event>
 5   3  0.8512900E+003  0.9238294E+02  0.7546771E-02  0.1177709E+00
       21   -1    0    0  501  502  0.00000000000E+00  0.00000000000E+00  0.71610210941E+03  0.71610210941E+03  0.00000000000E+00 0.  1.
        3   -1    0    0  503    0 -0.00000000000E+00 -0.00000000000E+00 -0.23544387280E+02  0.23544387280E+02  0.00000000000E+00 0. -1.
       23    1    1    2    0    0  0.10750494722E+02 -0.48282074261E+01  0.77609008150E+02  0.12032162820E+03  0.91188000000E+02 0. -1.
       21    1    1    2  503  502 -0.27323676750E+02 -0.26481209348E+02  0.32535827077E+03  0.32757570441E+03  0.00000000000E+00 0.  1.
        3    1    1    2  501    0  0.16573182028E+02  0.31309416774E+02  0.28959044320E+03  0.29174916407E+03  0.00000000000E+00 0. -1.
<scales pt_clust_3="100000.00000" pt_clust_4="14.81070" pt_clust_5="35.42527"></scales>
<rwgt>
<wgt id='bias'>   0.1000000E+01</wgt>
</rwgt>
<clustering>
<clus scale="   35.425">  1  5  2 -1</clus>
<clus scale="   14.811">  1  4  2 -1</clus>
<clus scale="   35.425">  1  3  2 -1</clus>
</clustering>
</event>
<event>
 5   3  0.8512900E+003  0.1428266E+03  0.7546771E-02  0.1105327E+00
       21   -1    0    0  501  502  0.00000000000E+00  0.00000000000E+00  0.10554640766E+03  0.10554640766E+03  0.00000000000E+00 0. -1.
        5   -1    0    0  503    0 -0.00000000000E+00 -0.00000000000E+00 -0.63076268092E+02  0.63076268092E+02  0.00000000000E+00 0. -1.
       23    1    1    2    0    0  0.31546787697E+02  0.27208507088E+02  0.13977604480E+02  0.10122315665E+03  0.91188000000E+02 0. -1.
       21    1    1    2  503  502 -0.35517690321E+01 -0.10712329291E+02 -0.11337038420E+02  0.15996796624E+02  0.00000000000E+00 0.  1.
        5    1    1    2  501    0 -0.27995018665E+02 -0.16496177797E+02  0.39829573507E+02  0.51402722474E+02  0.00000000000E+00 0. -1.
<scales pt_clust_3="100000.00000" pt_clust_4="11.28579" pt_clust_5="100000.00000"></scales>
<rwgt>
<wgt id='bias'>   0.1000000E+01</wgt>
</rwgt>
<clustering>
<clus scale="   11.286">  2  4  1 -1</clus>
<clus scale="   33.500">  3  5 -1 -1</clus>
<clus scale="  142.827">  1  3  2 -1</clus>
</clustering>
</event>
<event>
 5   3  0.8512900E+003  0.1137859E+03  0.7546771E-02  0.1141925E+00
       21   -1    0    0  501  502  0.00000000000E+00  0.00000000000E+00  0.79386947696E+02  0.79386947696E+02  0.00000000000E+00 0. -1.
        1   -1    0    0  503    0 -0.00000000000E+00 -0.00000000000E+00 -0.77058723939E+03  0.77058723939E+03  0.00000000000E+00 0. -1.
       23    1    1    2    0    0 -0.91248914356E+01  0.66880555915E+02 -0.73880962751E+03  0.74746985856E+03  0.91188000000E+02 0. -1.
       21    1    1    2  503  502  0.85395571256E+01  0.10264815749E+02  0.42803637212E+01  0.14021839817E+02  0.00000000000E+00 0. -1.
        1    1    1    2  501    0  0.58533430999E+00 -0.77145371664E+02  0.43328972098E+02  0.88482488711E+02  0.00000000000E+00 0. -1.
<scales pt_clust_3="100000.00000" pt_clust_4="13.35255" pt_clust_5="68.05873"></scales>
<rwgt>
<wgt id='bias'>   0.1000000E+01</wgt>
</rwgt>
<clustering>
<clus scale="   13.353">  1  4  2 -1</clus>
<clus scale="   68.059">  1  5  2 -1</clus>
<clus scale="   13.353">  1  3  2 -1</clus>
</clustering>
</event>
<event>
 5   3  0.8512900E+003  0.1011858E+03  0.7546771E-02  0.1161799E+00
        2   -1    0    0  502    0  0.00000000000E+00  0.00000000000E+00  0.10171571536E+03  0.10171571536E+03  0.00000000000E+00 0. -1.
       -2   -1    0    0    0  501 -0.00000000000E+00 -0.00000000000E+00 -0.21256697919E+03  0.21256697919E+03  0.00000000000E+00 0.  1.
       23    1    1    2    0    0  0.50817741639E+01  0.45083776660E+02 -0.19214903168E+03  0.21747384456E+03  0.91188000000E+02 0.  1.
       21    1    1    2  502  503 -0.75400360957E-01 -0.11308371079E+02  0.34835544006E+01  0.11833008618E+02  0.00000000000E+00 0.  1.
       21    1    1    2  503  501 -0.50063738029E+01 -0.33775405581E+02  0.77814213451E+02  0.84975841366E+02  0.00000000000E+00 0. -1.
<scales pt_clust_3="100000.00000" pt_clust_4="11.30862" pt_clust_5="43.85563"></scales>
<rwgt>
<wgt id='bias'>   0.1000000E+01</wgt>
</rwgt>
<clustering>
<clus scale="   11.309">  1  4  2 -1</clus>
<clus scale="   43.856">  1  5  2 -1</clus>
<clus scale="   11.309">  1  3  2 -1</clus>
</clustering>
</event>
<event>
 4   2  0.8512900E+003  0.9502612E+02  0.7546771E-02  0.1172729E+00
       21   -1    0    0  501  502  0.00000000000E+00  0.00000000000E+00  0.13522918209E+03  0.13522918209E+03  0.00000000000E+00 0. -1.
        3   -1    0    0  502    0 -0.00000000000E+00 -0.00000000000E+00 -0.81491950960E+02  0.81491950960E+02  0.00000000000E+00 0. -1.
       23    1    1    2    0    0 -0.23854499808E+02  0.12069603810E+02 -0.51539407041E+02  0.10810307266E+03  0.91188000000E+02 0. -1.
        3    1    1    2  501    0  0.23854499808E+02 -0.12069603810E+02  0.10527663817E+03  0.10861806039E+03  0.00000000000E+00 0. -1.
<scales pt_clust_3="100000.00000" pt_clust_4="26.73411"></scales>
<rwgt>
<wgt id='bias'>   0.1000000E+01</wgt>
</rwgt>
<clustering>
<clus scale="   26.734">  1  4  2 -1</clus>
<clus scale="   26.734">  1  3  2 -1</clus>
</clustering>
</event>
<event>
 3   1  0.8512900E+003  0.9118800E+02  0.7546771E-02  0.1180022E+00
       -1   -1    0    0    0  501 -0.00000000000E+00  0.00000000000E+00  0.92798165217E+03  0.92798165217E+03  0.00000000000E+00 0.  1.
        1   -1    0    0  501    0  0.00000000000E+00 -0.00000000000E+00 -0.22401443295E+01  0.22401443295E+01  0.00000000000E+00 0. -1.
       23    1    1    2    0    0  0.00000000000E+00 -0.00000000000E+00  0.92574150784E+03  0.93022179650E+03  0.91188000000E+02 0.  1.
<scales pt_clust_3="100000.00000"></scales>
<rwgt>
<wgt id='bias'>   0.1000000E+01</wgt>
</rwgt>
<clustering>
<clus scale="   91.188">  2  3  1 -1</clus>
</clustering>
</event>
<event>
 5   3  0.8512900E+003  0.1103222E+03  0.7546771E-02  0.1147094E+00
       21   -1    0    0  501  502  0.00000000000E+00  0.00000000000E+00  0.16218556578E+04  0.16218556578E+04  0.00000000000E+00 0. -1.
       -3   -1    0    0    0  501 -0.00000000000E+00 -0.00000000000E+00 -0.57275813039E+01  0.57275813039E+01  0.00000000000E+00 0.  1.
       23    1    1    2    0    0  0.50662623185E+02  0.35903066907E+02  0.65249520053E+03  0.66175597440E+03  0.91188000000E+02 0.  0.
       21    1    1    2  503  502 -0.21262324040E+02 -0.23740461217E+02  0.38319091142E+03  0.38451394060E+03  0.00000000000E+00 0. -1.
       -3    1    1    2    0  503 -0.29400299144E+02 -0.12162605689E+02  0.58044196455E+03  0.58131332411E+03  0.00000000000E+00 0.  1.
<scales pt_clust_3="100000.00000" pt_clust_4="19.43251" pt_clust_5="65.06908"></scales>
<rwgt>
<wgt id='bias'>   0.1000000E+01</wgt>
</rwgt>
<clustering>
<clus scale="   19.433">  4  5 -1 -1</clus>
<clus scale="   65.069">  1  4  2 -1</clus>
<clus scale="   65.069">  1  3  2 -1</clus>
</clustering>
</event>
<event>
 3   1  0.8512900E+003  0.9118800E+02  0.7546771E-02  0.1180022E+00
       -5   -1    0    0    0  501 -0.00000000000E+00  0.00000000000E+00  0.39987246522E+03  0.39987246522E+03  0.00000000000E+00 0.  1.
        5   -1    0    0  501    0  0.00000000000E+00 -0.00000000000E+00 -0.51986896243E+01  0.51986896243E+01  0.00000000000E+00 0. -1.
       23    1    1    2    0    0  0.00000000000E+00 -0.00000000000E+00  0.39467377560E+03  0.40507115485E+03  0.91188000000E+02 0.  1.
<scales pt_clust_3="100000.00000"></scales>
<rwgt>
<wgt id='bias'>   0.1000000E+01</wgt>
</rwgt>
<clustering>
<clus scale="   91.188">  2  3  1 -1</clus>
</clustering>
</event>
<event>
 3   1  0.8512900E+003  0.9118800E+02  0.7546771E-02  0.1180022E+00
        3   -1    0    0  501    0  0.00000000000E+00  0.00000000000E+00  0.38596940118E+01  0.38596940118E+01  0.00000000000E+00 0. -1.
       -3   -1    0    0    0  501 -0.00000000000E+00 -0.00000000000E+00 -0.53859524346E+03  0.53859524346E+03  0.00000000000E+00 0.  1.
       23    1    1    2    0    0  0.00000000000E+00  0.00000000000E+00 -0.53473554945E+03  0.54245493748E+03  0.91188000000E+02 0. -1.
<scales pt_clust_3="100000.00000"></scales>
<rwgt>
<wgt id='bias'>   0.1000000E+01</wgt>
</rwgt>
<clustering>
<clus scale="   91.188">  1  3  2 -1</clus>
</clustering>
</event>
<event>
 5   3  0.8512900E+003  0.1000832E+03  0.7546771E-02  0.1163691E+00
       -2   -1    0    0    0  501 -0.00000000000E+00  0.00000000000E+00  0.10374773869E+03  0.10374773869E+03  0.00000000000E+00 0. -1.
       21   -1    0    0  501  502  0.00000000000E+00 -0.00000000000E+00 -0.63428638744E+03  0.63428638744E+03  0.00000000000E+00 0.  1.
       23    1    1    2    0    0  0.17575145468E+02  0.14093628794E+02  0.35874596227E+02  0.10054727301E+03  0.91188000000E+02 0.  0.
       21    1    1    2  503  502  0.12408241746E+02  0.30365041542E+02 -0.58099101554E+03  0.58191628293E+03  0.00000000000E+00 0.  1.
       -2    1    1    2    0  503 -0.29983387213E+02 -0.44458670336E+02  0.14577770549E+02  0.55570570188E+02  0.00000000000E+00 0. -1.
<scales pt_clust_3="100000.00000" pt_clust_4="32.80244" pt_clust_5="41.24803"></scales>
<rwgt>
<wgt id='bias'>   0.1000000E+01</wgt>
</rwgt>
<clustering>
<clus scale="   32.802">  2  4  1 -1</clus>
<clus scale="   41.248">  2  5  1 -1</clus>
<clus scale="   32.802">  2  3  1 -1</clus>
</clustering>
</event>
<event>
 5   3  0.8512900E+003  0.4265900E+02  0.7546771E-02  0.1162676E+00
       21   -1    0    0  501  502  0.00000000000E+00  0.00000000000E+00  0.54885202012E+01  0.54885202012E+01  0.00000000000E+00 0. -1.
        1   -1    0    0  503    0 -0.00000000000E+00 -0.00000000000E+00 -0.11123405226E+05  0.11123405226E+05  0.00000000000E+00 0. -1.
       23    1    1    2    0    0  0.23233703463E+02 -0.17531600884E+02 -0.80964563282E+04  0.80970221370E+04  0.91188000000E+02 0. -1.
       21    1    1    2  503  502  0.12140939607E+02 -0.65741134466E+01 -0.29383711834E+04  0.29384036198E+04  0.00000000000E+00 0. -1.
        1    1    1    2  501    0 -0.35374643071E+02  0.24105714330E+02 -0.83089193860E+02  0.93467989023E+02  0.00000000000E+00 0. -1.
<scales pt_clust_3="100000.00000" pt_clust_4="13.80657" pt_clust_5="42.65900"></scales>
<rwgt>
<wgt id='bias'>   0.1000000E+01</wgt>
</rwgt>
<clustering>
<clus scale="   13.807">  2  4  1 -1</clus>
<clus scale="   42.659">  1  5  2 -1</clus>
<clus scale="   42.659">  1  3  2 -1</clus>
</clustering>
</event>
<event>
 3   1  0.8512900E+003  0.9118800E+02  0.7546771E-02  0.1180022E+00
       -2   -1    0    0    0  501 -0.00000000000E+00  0.00000000000E+00  0.20054715754E+02  0.20054715754E+02  0.00000000000E+00 0.  1.
        2   -1    0    0  501    0  0.00000000000E+00 -0.00000000000E+00 -0.10365705809E+03  0.10365705809E+03  0.00000000000E+00 0. -1.
       23    1    1    2    0    0  0.00000000000E+00 -0.00000000000E+00 -0.83602342340E+02  0.12371177385E+03  0.91188000000E+02 0.  1.
<scales pt_clust_3="100000.00000"></scales>
<rwgt>
<wgt id='bias'>   0.1000000E+01</wgt>
</rwgt>
<clustering>
<clus scale="   91.188">  2  3  1 -1</clus>
</clustering>
</event>
<event>
 3   1  0.8512900E+003  0.9118800E+02  0.7546771E-02  0.1180022E+00
       -1   -1    0    0    0  501 -0.00000000000E+00  0.00000000000E+00  0.59291838680E+00  0.59291838680E+00  0.00000000000E+00 0.  1.
        1   -1    0    0  501    0  0.00000000000E+00 -0.00000000000E+00 -0.35060691020E+04  0.35060691020E+04  0.00000000000E+00 0. -1.
       23    1    1    2    0    0  0.00000000000E+00 -0.00000000000E+00 -0.35054761837E+04  0.35066620204E+04  0.91188000000E+02 0.  1.
<scales pt_clust_3="100000.00000"></scales>
<rwgt>
<wgt id='bias'>   0.1000000E+01</wgt>
</rwgt>
<clustering>
<clus scale="   91.188">  2  3  1 -1</clus>
</clustering>
</event>
<event>
 5   3  0.8512900E+003  0.9424930E+02  0.7546771E-02  0.1174173E+00
       21   -1    0    0  503  502  0.00000000000E+00  0.00000000000E+00  0.20495243645E+03  0.20495243645E+03  0.00000000000E+00 0.  1.
       -1   -1    0    0    0  501 -0.00000000000E+00 -0.00000000000E+00 -0.48336950263E+02  0.48336950263E+02  0.00000000000E+00 0.  1.
       23    1    1    2    0    0  0.19125781349E+02  0.11765708691E+02  0.35821092663E+01  0.93980371695E+02  0.91188000000E+02 0.  1.
       21    1    1    2  503  501  0.99457574047E+01 -0.84905837187E+01  0.28067799012E+02  0.30964648289E+02  0.00000000000E+00 0.  1.
       -1    1    1    2    0  502 -0.29071538754E+02 -0.32751249721E+01  0.12496557791E+03  0.12834436673E+03  0.00000000000E+00 0.  1.
<scales pt_clust_3="100000.00000" pt_clust_4="13.07701" pt_clust_5="23.82601"></scales>
<rwgt>
<wgt id='bias'>   0.1000000E+01</wgt>
</rwgt>
<clustering>
<clus scale="   13.077">  1  4  2 -1</clus>
<clus scale="   23.826">  1  5  2 -1</clus>
<clus scale="   13.077">  1  3  2 -1</clus>
</clustering>
</event>
<event>
 3   1  0.8512900E+003  0.9118800E+02  0.7546771E-02  0.1180022E+00
        1   -1    0    0  501    0  0.00000000000E+00  0.00000000000E+00  0.29178445892E+02  0.29178445892E+02  0.00000000000E+00 0. -1.
       -1   -1    0    0    0  501 -0.00000000000E+00 -0.00000000000E+00 -0.71244810081E+02  0.71244810081E+02  0.00000000000E+00 0.  1.
       23    1    1    2    0    0  0.00000000000E+00  0.00000000000E+00 -0.42066364189E+02  0.10042325597E+03  0.91188000000E+02 0. -1.
<scales pt_clust_3="100000.00000"></scales>
<rwgt>
<wgt id='bias'>   0.1000000E+01</wgt>
</rwgt>
<clustering>
<clus scale="   91.188">  1  3  2 -1</clus>
</clustering>
</event>
<event>
 3   1  0.8512900E+003  0.9118800E+02  0.7546771E-02  0.1180022E+00
       -1   -1    0    0    0  501 -0.00000000000E+00  0.00000000000E+00  0.89092462055E+02  0.89092462055E+02  0.00000000000E+00 0.  1.
        1   -1    0    0  501    0  0.00000000000E+00 -0.00000000000E+00 -0.23333206739E+02  0.23333206739E+02  0.00000000000E+00 0. -1.
       23    1    1    2    0    0  0.00000000000E+00 -0.00000000000E+00  0.65759255316E+02  0.11242566879E+03  0.91188000000E+02 0.  1.
<scales pt_clust_3="100000.00000"></scales>
<rwgt>
<wgt id='bias'>   0.1000000E+01</wgt>
</rwgt>
<clustering>
<clus scale="   91.188">  2  3  1 -1</clus>
</clustering>
</event>
<event>
 3   1  0.8512900E+003  0.9118800E+02  0.7546771E-02  0.1180022E+00
       -2   -1    0    0    0  501 -0.00000000000E+00  0.00000000000E+00  0.47148377846E+02  0.47148377846E+02  0.00000000000E+00 0.  1.
        2   -1    0    0  501    0  0.00000000000E+00 -0.00000000000E+00 -0.44090866557E+02  0.44090866557E+02  0.00000000000E+00 0. -1.
       23    1    1    2    0    0  0.00000000000E+00 -0.00000000000E+00  0.30575112895E+01  0.91239244403E+02  0.91188000000E+02 0.  1.
<scales pt_clust_3="100000.00000"></scales>
<rwgt>
<wgt id='bias'>   0.1000000E+01</wgt>
</rwgt>
<clustering>
<clus scale="   91.188">  2  3  1 -1</clus>
</clustering>
</event>
<event>
 5   3  0.8512900E+003  0.3529734E+03  0.7546771E-02  0.9805974E-01
        1   -1    0    0  502    0 -0.00000000000E+00  0.00000000000E+00  0.98641749344E+04  0.98641749344E+04  0.00000000000E+00 0. -1.
       21   -1    0    0  503  502  0.00000000000E+00 -0.00000000000E+00 -0.15653923124E+02  0.15653923124E+02  0.00000000000E+00 0. -1.
       23    1    1    2    0    0 -0.18749876735E+02  0.38127248139E+01  0.98446656485E+04  0.98451065548E+04  0.91188000000E+02 0. -1.
       21    1    1    2  503  501  0.99121907058E+01 -0.13056205266E+02 -0.71178957502E+01  0.17871218774E+02  0.00000000000E+00 0. -1.
        1    1    1    2  501    0  0.88376860292E+01  0.92434804523E+01  0.10973258536E+02  0.16851083886E+02  0.00000000000E+00 0. -1.
<scales pt_clust_3="100000.00000" pt_clust_4="16.39256" pt_clust_5="100000.00000"></scales>
<rwgt>
<wgt id='bias'>   0.1000000E+01</wgt>
</rwgt>
<clustering>
<clus scale="   12.789">  3  5 -1 -1</clus>
<clus scale="   16.393">  2  4  1 -1</clus>
<clus scale="   16.393">  2  3  1 -1</clus>
</clustering>
</event>
<event>
 5   3  0.8512900E+003  0.1916999E+02  0.7546771E-02  0.1176185E+00
       21   -1    0    0  501  502  0.00000000000E+00  0.00000000000E+00  0.70411042504E+01  0.70411042504E+01  0.00000000000E+00 0. -1.
        1   -1    0    0  503    0 -0.00000000000E+00 -0.00000000000E+00 -0.13437746721E+04  0.13437746721E+04  0.00000000000E+00 0. -1.
       23    1    1    2    0    0 -0.99021826201E+01 -0.21046940639E+02 -0.75372338914E+03  0.75957568787E+03  0.91188000000E+02 0.  0.
       21    1    1    2  503  502  0.15593038392E+02  0.11035232838E+02 -0.57858935047E+03  0.57890461709E+03  0.00000000000E+00 0. -1.
        1    1    1    2  501    0 -0.56908557714E+01  0.10011707801E+02 -0.44208282730E+01  0.12335471419E+02  0.00000000000E+00 0. -1.
<scales pt_clust_3="100000.00000" pt_clust_4="19.16999" pt_clust_5="11.51608"></scales>
<rwgt>
<wgt id='bias'>   0.1000000E+01</wgt>
</rwgt>
<clustering>
<clus scale="   11.516">  1  5  2 -1</clus>
<clus scale="   19.170">  2  4  1 -1</clus>
<clus scale="   11.516">  1  3  2 -1</clus>
</clustering>
</event>
<event>
 5   3  0.8512900E+003  0.2247836E+03  0.7546771E-02  0.1028654E+00
        1   -1    0    0  503    0 -0.00000000000E+00  0.00000000000E+00  0.73924956047E+03  0.73924956047E+03  0.00000000000E+00 0. -1.
       21   -1    0    0  501  502  0.00000000000E+00 -0.00000000000E+00 -0.10734007287E+03  0.10734007287E+03  0.00000000000E+00 0. -1.
       23    1    1    2    0    0 -0.19029187287E+03  0.13416992516E+03  0.51176232183E+03  0.56958624552E+03  0.91188000000E+02 0. -1.
       21    1    1    2  503  502  0.88269028906E+01 -0.55672588709E+01  0.38800911259E+02  0.40179836990E+02  0.00000000000E+00 0. -1.
        1    1    1    2  501    0  0.18146496998E+03 -0.12860266629E+03  0.81346254515E+02  0.23682355084E+03  0.00000000000E+00 0. -1.
<scales pt_clust_3="100000.00000" pt_clust_4="10.43593" pt_clust_5="224.78356"></scales>
<rwgt>
<wgt id='bias'>   0.1000000E+01</wgt>
</rwgt>
<clustering>
<clus scale="   10.436">  1  4  2 -1</clus>
<clus scale="  224.784">  2  5  1 -1</clus>
<clus scale="  224.784">  2  3  1 -1</clus>
</clustering>
</event>
<event>
 3   1  0.8512900E+003  0.9118800E+02  0.7546771E-02  0.1180022E+00
       -1   -1    0    0    0  501 -0.00000000000E+00  0.00000000000E+00  0.39473258437E+01  0.39473258437E+01  0.00000000000E+00 0.  1.
        1   -1    0    0  501    0  0.00000000000E+00 -0.00000000000E+00 -0.52663826558E+03  0.52663826558E+03  0.00000000000E+00 0. -1.
       23    1    1    2    0    0  0.00000000000E+00 -0.00000000000E+00 -0.52269093974E+03  0.53058559142E+03  0.91188000000E+02 0.  1.
<scales pt_clust_3="100000.00000"></scales>
<rwgt>
<wgt id='bias'>   0.1000000E+01</wgt>
</rwgt>
<clustering>
<clus scale="   91.188">  2  3  1 -1</clus>
</clustering>
</event>
<event>
 3   1  0.8512900E+003  0.9118800E+02  0.7546771E-02  0.1180022E+00
       -3   -1    0    0    0  501 -0.00000000000E+00  0.00000000000E+00  0.15893621706E+03  0.15893621706E+03  0.00000000000E+00 0.  1.
        3   -1    0    0  501    0  0.00000000000E+00 -0.00000000000E+00 -0.13079541432E+02  0.13079541432E+02  0.00000000000E+00 0. -1.
       23    1    1    2    0    0  0.00000000000E+00 -0.00000000000E+00  0.14585667562E+03  0.17201575849E+03  0.91188000000E+02 0.  1.
<scales pt_clust_3="100000.00000"></scales>
<rwgt>
<wgt id='bias'>   0.1000000E+01</wgt>
</rwgt>
<clustering>
<clus scale="   91.188">  2  3  1 -1</clus>
</clustering>
</event>
<event>
 5   3  0.8512900E+003  0.1103360E+03  0.7546771E-02  0.1147073E+00
        1   -1    0    0  503    0 -0.00000000000E+00  0.00000000000E+00  0.15333349191E+03  0.15333349191E+03  0.00000000000E+00 0. -1.
       21   -1    0    0  501  502  0.00000000000E+00 -0.00000000000E+00 -0.28540538630E+03  0.28540538630E+03  0.00000000000E+00 0.  1.
       23    1    1    2    0    0 -0.21671085899E+02  0.13120590557E+02  0.30545530722E+02  0.99448814230E+02  0.91188000000E+02 0.  0.
       21    1    1    2  503  502 -0.51380968634E+02  0.30125618688E+02 -0.22576283993E+03  0.23348750873E+03  0.00000000000E+00 0.  1.
        1    1    1    2  501    0  0.73052054533E+02 -0.43246209245E+02  0.63145414822E+02  0.10580255526E+03  0.00000000000E+00 0. -1.
<scales pt_clust_3="100000.00000" pt_clust_4="59.56137" pt_clust_5="62.11900"></scales>
<rwgt>
<wgt id='bias'>   0.1000000E+01</wgt>
</rwgt>
<clustering>
<clus scale="   59.561">  2  4  1 -1</clus>
<clus scale="   62.119">  2  5  1 -1</clus>
<clus scale="   59.561">  2  3  1 -1</clus>
</clustering>
</event>
<event>
 3   1  0.8512900E+003  0.9118800E+02  0.7546771E-02  0.1180022E+00
       -2   -1    0    0    0  501 -0.00000000000E+00  0.00000000000E+00  0.17699230071E+01  0.17699230071E+01  0.00000000000E+00 0.  1.
        2   -1    0    0  501    0  0.00000000000E+00 -0.00000000000E+00 -0.11745216191E+04  0.11745216191E+04  0.00000000000E+00 0. -1.
       23    1    1    2    0    0  0.00000000000E+00 -0.00000000000E+00 -0.11727516961E+04  0.11762915421E+04  0.91188000000E+02 0.  1.
<scales pt_clust_3="100000.00000"></scales>
<rwgt>
<wgt id='bias'>   0.1000000E+01</wgt>
</rwgt>
<clustering>
<clus scale="   91.188">  2  3  1 -1</clus>
</clustering>
</event>
<event>
 3   1  0.8512900E+003  0.9118800E+02  0.7546771E-02  0.1180022E+00
       -1   -1    0    0    0  501 -0.00000000000E+00  0.00000000000E+00  0.16307759511E+03  0.16307759511E+03  0.00000000000E+00 0.  1.
        1   -1    0    0  501    0  0.00000000000E+00 -0.00000000000E+00 -0.12747384670E+02  0.12747384670E+02  0.00000000000E+00 0. -1.
       23    1    1    2    0    0  0.00000000000E+00 -0.00000000000E+00  0.15033021044E+03  0.17582497978E+03  0.91188000000E+02 0.  1.
<scales pt_clust_3="100000.00000"></scales>
<rwgt>
<wgt id='bias'>   0.1000000E+01</wgt>
</rwgt>
<clustering>
<clus scale="   91.188">  2  3  1 -1</clus>
</clustering>
</event>
<event>
 3   1  0.8512900E+003  0.9118800E+02  0.7546771E-02  0.1180022E+00
       -2   -1    0    0    0  501 -0.00000000000E+00  0.00000000000E+00  0.17581970510E+00  0.17581970510E+00  0.00000000000E+00 0.  1.
        2   -1    0    0  501    0  0.00000000000E+00 -0.00000000000E+00 -0.11823548645E+05  0.11823548645E+05  0.00000000000E+00 0. -1.
       23    1    1    2    0    0  0.00000000000E+00 -0.00000000000E+00 -0.11823372826E+05  0.11823724465E+05  0.91188000000E+02 0.  1.
<scales pt_clust_3="100000.00000"></scales>
<rwgt>
<wgt id='bias'>   0.1000000E+01</wgt>
</rwgt>
<clustering>
<clus scale="   91.188">  2  3  1 -1</clus>
</clustering>
</event>
<event>
 3   1  0.8512900E+003  0.9118800E+02  0.7546771E-02  0.1180022E+00
       -1   -1    0    0    0  501 -0.00000000000E+00  0.00000000000E+00  0.14035067116E+02  0.14035067116E+02  0.00000000000E+00 0.  1.
        1   -1    0    0  501    0  0.00000000000E+00 -0.00000000000E+00 -0.14811563199E+03  0.14811563199E+03  0.00000000000E+00 0. -1.
       23    1    1    2    0    0  0.00000000000E+00 -0.00000000000E+00 -0.13408056488E+03  0.16215069911E+03  0.91188000000E+02 0.  1.
<scales pt_clust_3="100000.00000"></scales>
<rwgt>
<wgt id='bias'>   0.1000000E+01</wgt>
</rwgt>
<clustering>
<clus scale="   91.188">  2  3  1 -1</clus>
</clustering>
</event>
<event>
 4   2  0.8512900E+003  0.9960510E+02  0.7546771E-02  0.1164519E+00
       21   -1    0    0  501  502  0.00000000000E+00  0.00000000000E+00  0.31120901487E+01  0.31120901487E+01  0.00000000000E+00 0.  1.
       -4   -1    0    0    0  501 -0.00000000000E+00 -0.00000000000E+00 -0.15694193060E+04  0.15694193060E+04  0.00000000000E+00 0.  1.
       23    1    1    2    0    0 -0.15807703604E+01  0.40042786775E+02 -0.11426586521E+04  0.11469917044E+04  0.91188000000E+02 0.  1.
       -4    1    1    2    0  502  0.15807703604E+01 -0.40042786775E+02 -0.42364856378E+03  0.42553969169E+03  0.00000000000E+00 0.  1.
<scales pt_clust_3="100000.00000" pt_clust_4="40.07398"></scales>
<rwgt>
<wgt id='bias'>   0.1000000E+01</wgt>
</rwgt>
<clustering>
<clus scale="   40.074">  1  4  2 -1</clus>
<clus scale="   40.074">  1  3  2 -1</clus>
</clustering>
</event>
<event>
 3   1  0.8512900E+003  0.9118800E+02  0.7546771E-02  0.1180022E+00
        2   -1    0    0  501    0  0.00000000000E+00  0.00000000000E+00  0.29376207981E+03  0.29376207981E+03  0.00000000000E+00 0. -1.
       -2   -1    0    0    0  501 -0.00000000000E+00 -0.00000000000E+00 -0.70765186485E+01  0.70765186485E+01  0.00000000000E+00 0.  1.
       23    1    1    2    0    0  0.00000000000E+00  0.00000000000E+00  0.28668556116E+03  0.30083859846E+03  0.91188000000E+02 0. -1.
<scales pt_clust_3="100000.00000"></scales>
<rwgt>
<wgt id='bias'>   0.1000000E+01</wgt>
</rwgt>
<clustering>
<clus scale="   91.188">  1  3  2 -1</clus>
</clustering>
</event>
<event>
 4   2  0.8512900E+003  0.9188856E+02  0.7546771E-02  0.1178661E+00
       -2   -1    0    0    0  501 -0.00000000000E+00  0.00000000000E+00  0.10946682646E+00  0.10946682646E+00  0.00000000000E+00 0.  1.
        2   -1    0    0  502    0  0.00000000000E+00 -0.00000000000E+00 -0.27537771988E+05  0.27537771988E+05  0.00000000000E+00 0. -1.
       23    1    1    2    0    0 -0.84236460498E+01  0.75695842130E+01 -0.20070445618E+05  0.20070655963E+05  0.91188000000E+02 0.  0.
       21    1    1    2  502  501  0.84236460498E+01 -0.75695842130E+01 -0.74672169032E+04  0.74672254912E+04  0.00000000000E+00 0.  1.
<scales pt_clust_3="100000.00000" pt_clust_4="11.32504"></scales>
<rwgt>
<wgt id='bias'>   0.1000000E+01</wgt>
</rwgt>
<clustering>
<clus scale="   11.325">  2  4  1 -1</clus>
<clus scale="   11.325">  2  3  1 -1</clus>
</clustering>
</event>
<event>
 5   3  0.8512900E+003  0.1175782E+03  0.7546771E-02  0.1136494E+00
       21   -1    0    0  503  502  0.00000000000E+00  0.00000000000E+00  0.35777493193E+03  0.35777493193E+03  0.00000000000E+00 0. -1.
       -5   -1    0    0    0  501 -0.00000000000E+00 -0.00000000000E+00 -0.64830583968E+02  0.64830583968E+02  0.00000000000E+00 0. -1.
       23    1    1    2    0    0  0.67744486007E+02  0.61047874437E+01  0.52436366374E+02  0.12526534907E+03  0.91188000000E+02 0. -1.
       21    1    1    2  503  501  0.10296167854E+02 -0.45777249614E+01  0.21489424284E+03  0.21518945663E+03  0.00000000000E+00 0. -1.
       -5    1    1    2    0  502 -0.78040653860E+02 -0.15270624823E+01  0.25613738751E+02  0.82150710207E+02  0.00000000000E+00 0. -1.
<scales pt_clust_3="100000.00000" pt_clust_4="11.26795" pt_clust_5="74.22527"></scales>
<rwgt>
<wgt id='bias'>   0.1000000E+01</wgt>
</rwgt>
<clustering>
<clus scale="   11.268">  1  4  2 -1</clus>
<clus scale="   74.225">  1  5  2 -1</clus>
<clus scale="   11.268">  1  3  2 -1</clus>
</clustering>
</event>
<event>
 3   1  0.8512900E+003  0.9118800E+02  0.7546771E-02  0.1180022E+00
        2   -1    0    0  501    0  0.00000000000E+00  0.00000000000E+00  0.36158001447E+04  0.36158001447E+04  0.00000000000E+00 0. -1.
       -2   -1    0    0    0  501 -0.00000000000E+00 -0.00000000000E+00 -0.57492470623E+00  0.57492470623E+00  0.00000000000E+00 0.  1.
       23    1    1    2    0    0  0.00000000000E+00  0.00000000000E+00  0.36152252200E+04  0.36163750694E+04  0.91188000000E+02 0. -1.
<scales pt_clust_3="100000.00000"></scales>
<rwgt>
<wgt id='bias'>   0.1000000E+01</wgt>
</rwgt>
<clustering>
<clus scale="   91.188">  1  3  2 -1</clus>
</clustering>
</event>
<event>
 5   3  0.8512900E+003  0.9370585E+02  0.7546771E-02  0.1175193E+00
       -5   -1    0    0    0  501 -0.00000000000E+00  0.00000000000E+00  0.63457992087E+02  0.63457992087E+02  0.00000000000E+00 0.  1.
       21   -1    0    0  501  502  0.00000000000E+00 -0.00000000000E+00 -0.34304437186E+03  0.34304437186E+03  0.00000000000E+00 0.  1.
       23    1    1    2    0    0  0.68005758999E+01 -0.21084617711E+02  0.24460872850E+02  0.96976257822E+02  0.91188000000E+02 0.  1.
       21    1    1    2  503  502 -0.26854241255E+02 -0.22279698017E+01 -0.15732119719E+03  0.15961225896E+03  0.00000000000E+00 0.  1.
       -5    1    1    2    0  503  0.20053665355E+02  0.23312587513E+02 -0.14672605543E+03  0.14991384716E+03  0.00000000000E+00 0.  1.
<scales pt_clust_3="100000.00000" pt_clust_4="26.94650" pt_clust_5="21.57626"></scales>
<rwgt>
<wgt id='bias'>   0.1000000E+01</wgt>
</rwgt>
<clustering>
<clus scale="   26.947">  2  4  1 -1</clus>
<clus scale="   21.576">  2  5  1 -1</clus>
<clus scale="   26.947">  2  3  1 -1</clus>
</clustering>
</event>
<event>
 4   2  0.8512900E+003  0.1038044E+03  0.7546771E-02  0.1157413E+00
       21   -1    0    0  501  502  0.00000000000E+00  0.00000000000E+00  0.14498574521E+04  0.14498574521E+04  0.00000000000E+00 0. -1.
       -3   -1    0    0    0  501 -0.00000000000E+00 -0.00000000000E+00 -0.90341482113E+01  0.90341482113E+01  0.00000000000E+00 0. -1.
       23    1    1    2    0    0 -0.27855807116E+02  0.41038475030E+02  0.30876213333E+03  0.32574439174E+03  0.91188000000E+02 0. -1.
       -3    1    1    2    0  502  0.27855807116E+02 -0.41038475030E+02  0.11320611705E+04  0.11331472085E+04  0.00000000000E+00 0. -1.
<scales pt_clust_3="100000.00000" pt_clust_4="49.59942"></scales>
<rwgt>
<wgt id='bias'>   0.1000000E+01</wgt>
</rwgt>
<clustering>
<clus scale="   49.599">  1  4  2 -1</clus>
<clus scale="   49.599">  1  3  2 -1</clus>
</clustering>
</event>
<event>
 3   1  0.8512900E+003  0.9118800E+02  0.7546771E-02  0.1180022E+00
       -2   -1    0    0    0  501 -0.00000000000E+00  0.00000000000E+00  0.47764346253E+00  0.47764346253E+00  0.00000000000E+00 0.  1.
        2   -1    0    0  501    0  0.00000000000E+00 -0.00000000000E+00 -0.43522271298E+04  0.43522271298E+04  0.00000000000E+00 0. -1.
       23    1    1    2    0    0  0.00000000000E+00 -0.00000000000E+00 -0.43517494863E+04  0.43527047732E+04  0.91188000000E+02 0.  1.
<scales pt_clust_3="100000.00000"></scales>
<rwgt>
<wgt id='bias'>   0.1000000E+01</wgt>
</rwgt>
<clustering>
<clus scale="   91.188">  2  3  1 -1</clus>
</clustering>
</event>
<event>
 3   1  0.8512900E+003  0.9118800E+02  0.7546771E-02  0.1180022E+00
        1   -1    0    0  501    0  0.00000000000E+00  0.00000000000E+00  0.97708934130E+02  0.97708934130E+02  0.00000000000E+00 0. -1.
       -1   -1    0    0    0  501 -0.00000000000E+00 -0.00000000000E+00 -0.21275565582E+02  0.21275565582E+02  0.00000000000E+00 0.  1.
       23    1    1    2    0    0  0.00000000000E+00  0.00000000000E+00  0.76433368548E+02  0.11898449971E+03  0.91188000000E+02 0. -1.
<scales pt_clust_3="100000.00000"></scales>
<rwgt>
<wgt id='bias'>   0.1000000E+01</wgt>
</rwgt>
<clustering>
<clus scale="   91.188">  1  3  2 -1</clus>
</clustering>
</event>
<event>
 4   2  0.8512900E+003  0.9227750E+02  0.7546771E-02  0.1177911E+00
       21   -1    0    0  501  502  0.00000000000E+00  0.00000000000E+00  0.10058287947E+03  0.10058287947E+03  0.00000000000E+00 0.  1.
        1   -1    0    0  502    0 -0.00000000000E+00 -0.00000000000E+00 -0.50272825720E+02  0.50272825720E+02  0.00000000000E+00 0.  1.
       23    1    1    2    0    0  0.11331685542E+02 -0.84545022123E+01 -0.63140455838E+01  0.92493265812E+02  0.91188000000E+02 0.  1.
        1    1    1    2  501    0 -0.11331685542E+02  0.84545022123E+01  0.56624099330E+02  0.58362439375E+02  0.00000000000E+00 0.  1.
<scales pt_clust_3="100000.00000" pt_clust_4="14.13809"></scales>
<rwgt>
<wgt id='bias'>   0.1000000E+01</wgt>
</rwgt>
<clustering>
<clus scale="   14.138">  1  4  2 -1</clus>
<clus scale="   14.138">  1  3  2 -1</clus>
</clustering>
</event>
<event>
 3   1  0.8512900E+003  0.9118800E+02  0.7546771E-02  0.1180022E+00
        4   -1    0    0  501    0  0.00000000000E+00  0.00000000000E+00  0.33689596486E+03  0.33689596486E+03  0.00000000000E+00 0. -1.
       -4   -1    0    0    0  501 -0.00000000000E+00 -0.00000000000E+00 -0.61704889724E+01  0.61704889724E+01  0.00000000000E+00 0.  1.
       23    1    1    2    0    0  0.00000000000E+00  0.00000000000E+00  0.33072547588E+03  0.34306645383E+03  0.91188000000E+02 0. -1.
<scales pt_clust_3="100000.00000"></scales>
<rwgt>
<wgt id='bias'>   0.1000000E+01</wgt>
</rwgt>
<clustering>
<clus scale="   91.188">  1  3  2 -1</clus>
</clustering>
</event>
<event>
 3   1  0.8512900E+003  0.9118800E+02  0.7546771E-02  0.1180022E+00
        4   -1    0    0  501    0  0.00000000000E+00  0.00000000000E+00  0.22251433423E+04  0.22251433423E+04  0.00000000000E+00 0. -1.
       -4   -1    0    0    0  501 -0.00000000000E+00 -0.00000000000E+00 -0.93423771694E+00  0.93423771694E+00  0.00000000000E+00 0.  1.
       23    1    1    2    0    0  0.00000000000E+00  0.00000000000E+00  0.22242091046E+04  0.22260775800E+04  0.91188000000E+02 0. -1.
<scales pt_clust_3="100000.00000"></scales>
<rwgt>
<wgt id='bias'>   0.1000000E+01</wgt>
</rwgt>
<clustering>
<clus scale="   91.188">  1  3  2 -1</clus>
</clustering>
</event>
<event>
 5   3  0.8512900E+003  0.2391668E+03  0.7546771E-02  0.1030561E+00
       21   -1    0    0  501  502  0.00000000000E+00  0.00000000000E+00  0.31901663260E+02  0.31901663260E+02  0.00000000000E+00 0.  1.
       -3   -1    0    0    0  501 -0.00000000000E+00 -0.00000000000E+00 -0.37987581717E+04  0.37987581717E+04  0.00000000000E+00 0.  1.
       23    1    1    2    0    0  0.16030457415E+02 -0.10946784123E+03 -0.20592859949E+04  0.20642708746E+04  0.91188000000E+02 0.  1.
       21    1    1    2  503  502  0.22052205159E+02  0.23422540994E+02  0.18929852881E+02  0.37326324613E+02  0.00000000000E+00 0.  1.
       -3    1    1    2    0  503 -0.38082662574E+02  0.86045300241E+02 -0.17265003665E+04  0.17290626357E+04  0.00000000000E+00 0.  1.
<scales pt_clust_3="100000.00000" pt_clust_4="32.17010" pt_clust_5="100000.00000"></scales>
<rwgt>
<wgt id='bias'>   0.1000000E+01</wgt>
</rwgt>
<clustering>
<clus scale="   32.170">  1  4  2 -1</clus>
<clus scale="   98.851">  3  5 -1 -1</clus>
<clus scale="   32.170">  1  3  2 -1</clus>
</clustering>
</event>
<event>
 5   3  0.8512900E+003  0.1194514E+03  0.7546771E-02  0.1133893E+00
       21   -1    0    0  501  502  0.00000000000E+00  0.00000000000E+00  0.68040152808E+03  0.68040152808E+03  0.00000000000E+00 0.  1.
       -3   -1    0    0    0  501 -0.00000000000E+00 -0.00000000000E+00 -0.14420348187E+03  0.14420348187E+03  0.00000000000E+00 0.  1.
       23    1    1    2    0    0  0.20461467411E+02  0.86140973699E+02  0.52216177147E+02  0.13740713045E+03  0.91188000000E+02 0.  1.
       21    1    1    2  503  502 -0.23858718153E+02 -0.10329740723E+02  0.57108339421E+03  0.57167489460E+03  0.00000000000E+00 0.  1.
       -3    1    1    2    0  503  0.33972507415E+01 -0.75811232977E+02 -0.87101525149E+02  0.11552298490E+03  0.00000000000E+00 0.  1.
<scales pt_clust_3="100000.00000" pt_clust_4="25.99888" pt_clust_5="77.15826"></scales>
<rwgt>
<wgt id='bias'>   0.1000000E+01</wgt>
</rwgt>
<clustering>
<clus scale="   25.999">  1  4  2 -1</clus>
<clus scale="   77.158">  1  5  2 -1</clus>
<clus scale="   25.999">  1  3  2 -1</clus>
</clustering>
</event>
<event>
 4   2  0.8512900E+003  0.9762670E+02  0.7546771E-02  0.1168004E+00
        3   -1    0    0  502    0  0.00000000000E+00  0.00000000000E+00  0.18796383518E+02  0.18796383518E+02  0.00000000000E+00 0.  1.
       -3   -1    0    0    0  501 -0.00000000000E+00 -0.00000000000E+00 -0.24281726601E+03  0.24281726601E+03  0.00000000000E+00 0. -1.
       23    1    1    2    0    0  0.92291365711E+01 -0.33623572349E+02 -0.18573876617E+03  0.20983293874E+03  0.91188000000E+02 0.  0.
       21    1    1    2  502  501 -0.92291365711E+01  0.33623572349E+02 -0.38282116324E+02  0.51780710787E+02  0.00000000000E+00 0.  1.
<scales pt_clust_3="100000.00000" pt_clust_4="34.86720"></scales>
<rwgt>
<wgt id='bias'>   0.1000000E+01</wgt>
</rwgt>
<clustering>
<clus scale="   34.867">  1  4  2 -1</clus>
<clus scale="   34.867">  1  3  2 -1</clus>
</clustering>
</event>
<event>
 3   1  0.8512900E+003  0.9118800E+02  0.7546771E-02  0.1180022E+00
       -2   -1    0    0    0  501 -0.00000000000E+00  0.00000000000E+00  0.53986802478E+00  0.53986802478E+00  0.00000000000E+00 0.  1.
        2   -1    0    0  501    0  0.00000000000E+00 -0.00000000000E+00 -0.38505944797E+04  0.38505944797E+04  0.00000000000E+00 0. -1.
       23    1    1    2    0    0  0.00000000000E+00 -0.00000000000E+00 -0.38500546117E+04  0.38511343477E+04  0.91188000000E+02 0.  1.
<scales pt_clust_3="100000.00000"></scales>
<rwgt>
<wgt id='bias'>   0.1000000E+01</wgt>
</rwgt>
<clustering>
<clus scale="   91.188">  2  3  1 -1</clus>
</clustering>
</event>
<event>
 3   1  0.8512900E+003  0.9118800E+02  0.7546771E-02  0.1180022E+00
       -1   -1    0    0    0  501 -0.00000000000E+00  0.00000000000E+00  0.88878899054E+00  0.88878899054E+00  0.00000000000E+00 0.  1.
        1   -1    0    0  501    0  0.00000000000E+00 -0.00000000000E+00 -0.23389273024E+04  0.23389273024E+04  0.00000000000E+00 0. -1.
       23    1    1    2    0    0  0.00000000000E+00 -0.00000000000E+00 -0.23380385134E+04  0.23398160913E+04  0.91188000000E+02 0.  1.
<scales pt_clust_3="100000.00000"></scales>
<rwgt>
<wgt id='bias'>   0.1000000E+01</wgt>
</rwgt>
<clustering>
<clus scale="   91.188">  2  3  1 -1</clus>
</clustering>
</event>
<event>
 5   3  0.8512900E+003  0.1031430E+03  0.7546771E-02  0.1158507E+00
       -4   -1    0    0    0  501 -0.00000000000E+00  0.00000000000E+00  0.65803956874E+04  0.65803956874E+04  0.00000000000E+00 0.  1.
       21   -1    0    0  501  502  0.00000000000E+00 -0.00000000000E+00 -0.42731511503E+02  0.42731511503E+02  0.00000000000E+00 0. -1.
       23    1    1    2    0    0 -0.46815317944E+02 -0.10173957610E+01  0.63824941674E+04  0.63833173004E+04  0.91188000000E+02 0.  1.
       21    1    1    2  503  502 -0.28563222779E+02  0.21091048479E+02 -0.25035977268E+02  0.43445254968E+02  0.00000000000E+00 0. -1.
       -4    1    1    2    0  503  0.75378540722E+02 -0.20073652718E+02  0.18020598581E+03  0.19636464360E+03  0.00000000000E+00 0.  1.
<scales pt_clust_3="100000.00000" pt_clust_4="35.50620" pt_clust_5="48.19982"></scales>
<rwgt>
<wgt id='bias'>   0.1000000E+01</wgt>
</rwgt>
<clustering>
<clus scale="   35.506">  2  4  1 -1</clus>
<clus scale="   48.200">  2  5  1 -1</clus>
<clus scale="   35.506">  2  3  1 -1</clus>
</clustering>
</event>
<event>
 4   2  0.8512900E+003  0.9674345E+02  0.7546771E-02  0.1169590E+00
        3   -1    0    0  502    0 -0.00000000000E+00  0.00000000000E+00  0.19689740369E+04  0.19689740369E+04  0.00000000000E+00 0. -1.
       21   -1    0    0  501  502  0.00000000000E+00 -0.00000000000E+00 -0.21168855884E+01  0.21168855884E+01  0.00000000000E+00 0.  1.
       23    1    1    2    0    0  0.24765868383E+02  0.20753189012E+02  0.15013017381E+04  0.15044155686E+04  0.91188000000E+02 0.  0.
        3    1    1    2  501    0 -0.24765868383E+02 -0.20753189012E+02  0.46555541327E+03  0.46667535387E+03  0.00000000000E+00 0. -1.
<scales pt_clust_3="100000.00000" pt_clust_4="32.31166"></scales>
<rwgt>
<wgt id='bias'>   0.1000000E+01</wgt>
</rwgt>
<clustering>
<clus scale="   32.312">  2  4  1 -1</clus>
<clus scale="   32.312">  2  3  1 -1</clus>
</clustering>
</event>
<event>
 5   3  0.8512900E+003  0.1507542E+02  0.7546771E-02  0.1177627E+00
       21   -1    0    0  501  502  0.00000000000E+00  0.00000000000E+00  0.69974360280E+01  0.69974360280E+01  0.00000000000E+00 0.  1.
        1   -1    0    0  503    0 -0.00000000000E+00 -0.00000000000E+00 -0.66811877309E+03  0.66811877309E+03  0.00000000000E+00 0. -1.
       23    1    1    2    0    0 -0.55942228033E+01  0.12740228636E+02 -0.47142461491E+03  0.48036447376E+03  0.91188000000E+02 0.  0.
       21    1    1    2  503  502 -0.85783076688E+01 -0.13095332582E+02 -0.16865312943E+03  0.16937813661E+03  0.00000000000E+00 0. -1.
        1    1    1    2  501    0  0.14172530472E+02  0.35510394541E+00 -0.21043592718E+02  0.25373598745E+02  0.00000000000E+00 0. -1.
<scales pt_clust_3="100000.00000" pt_clust_4="15.07542" pt_clust_5="14.17698"></scales>
<rwgt>
<wgt id='bias'>   0.1000000E+01</wgt>
</rwgt>
<clustering>
<clus scale="   14.177">  1  5  2 -1</clus>
<clus scale="   15.075">  2  4  1 -1</clus>
<clus scale="   14.177">  1  3  2 -1</clus>
</clustering>
</event>
<event>
 4   2  0.8512900E+003  0.9748906E+02  0.7546771E-02  0.1168250E+00
       -1   -1    0    0    0  501 -0.00000000000E+00  0.00000000000E+00  0.62421288639E+01  0.62421288639E+01  0.00000000000E+00 0.  1.
        1   -1    0    0  502    0  0.00000000000E+00 -0.00000000000E+00 -0.11604824576E+04  0.11604824576E+04  0.00000000000E+00 0. -1.
       23    1    1    2    0    0 -0.22536064358E+02 -0.26095804825E+02 -0.10850316020E+04  0.10894024481E+04  0.91188000000E+02 0. -1.
       21    1    1    2  502  501  0.22536064358E+02  0.26095804825E+02 -0.69208726752E+02  0.77322138387E+02  0.00000000000E+00 0.  1.
<scales pt_clust_3="100000.00000" pt_clust_4="34.47992"></scales>
<rwgt>
<wgt id='bias'>   0.1000000E+01</wgt>
</rwgt>
<clustering>
<clus scale="   34.480">  1  4  2 -1</clus>
<clus scale="   97.489">  2  3  1 -1</clus>
</clustering>
</event>
<event>
 5   3  0.8512900E+003  0.9440193E+02  0.7546771E-02  0.1173888E+00
       21   -1    0    0  503  502  0.00000000000E+00  0.00000000000E+00  0.44699326964E+04  0.44699326964E+04  0.00000000000E+00 0. -1.
       -4   -1    0    0    0  501 -0.00000000000E+00 -0.00000000000E+00 -0.22677161889E+01  0.22677161889E+01  0.00000000000E+00 0. -1.
       23    1    1    2    0    0  0.28066574717E+02 -0.32991206442E+01  0.10619351088E+04  0.10662176342E+04  0.91188000000E+02 0. -1.
       21    1    1    2  503  501 -0.71649722153E+01  0.83771202044E+01  0.23888861313E+04  0.23889115641E+04  0.00000000000E+00 0. -1.
       -4    1    1    2    0  502 -0.20901602502E+02 -0.50779995602E+01  0.10168437401E+04  0.10170712143E+04  0.00000000000E+00 0. -1.
<scales pt_clust_3="100000.00000" pt_clust_4="11.02329" pt_clust_5="24.42282"></scales>
<rwgt>
<wgt id='bias'>   0.1000000E+01</wgt>
</rwgt>
<clustering>
<clus scale="   11.023">  1  4  2 -1</clus>
<clus scale="   24.423">  1  5  2 -1</clus>
<clus scale="   11.023">  1  3  2 -1</clus>
</clustering>
</event>
<event>
 4   2  0.8512900E+003  0.9348829E+02  0.7546771E-02  0.1175604E+00
        2   -1    0    0  502    0 -0.00000000000E+00  0.00000000000E+00  0.22196442468E+02  0.22196442468E+02  0.00000000000E+00 0. -1.
       21   -1    0    0  501  502  0.00000000000E+00 -0.00000000000E+00 -0.16653262852E+03  0.16653262852E+03  0.00000000000E+00 0.  1.
       23    1    1    2    0    0 -0.11857923438E+02 -0.16858190130E+02 -0.86639976803E+02  0.12746193882E+03  0.91188000000E+02 0. -1.
        2    1    1    2  501    0  0.11857923438E+02  0.16858190130E+02 -0.57696209252E+02  0.61267132174E+02  0.00000000000E+00 0. -1.
<scales pt_clust_3="100000.00000" pt_clust_4="20.61089"></scales>
<rwgt>
<wgt id='bias'>   0.1000000E+01</wgt>
</rwgt>
<clustering>
<clus scale="   20.611">  2  4  1 -1</clus>
<clus scale="   20.611">  2  3  1 -1</clus>
</clustering>
</event>
<event>
 3   1  0.8512900E+003  0.9118800E+02  0.7546771E-02  0.1180022E+00
        1   -1    0    0  501    0  0.00000000000E+00  0.00000000000E+00  0.48672931821E+00  0.48672931821E+00  0.00000000000E+00 0. -1.
       -1   -1    0    0    0  501 -0.00000000000E+00 -0.00000000000E+00 -0.42709833951E+04  0.42709833951E+04  0.00000000000E+00 0.  1.
       23    1    1    2    0    0  0.00000000000E+00  0.00000000000E+00 -0.42704966658E+04  0.42714701244E+04  0.91188000000E+02 0. -1.
<scales pt_clust_3="100000.00000"></scales>
<rwgt>
<wgt id='bias'>   0.1000000E+01</wgt>
</rwgt>
<clustering>
<clus scale="   91.188">  1  3  2 -1</clus>
</clustering>
</event>
<event>
 4   2  0.8512900E+003  0.2236592E+03  0.7546771E-02  0.1039696E+00
       -1   -1    0    0    0  501 -0.00000000000E+00  0.00000000000E+00  0.20182418524E+03  0.20182418524E+03  0.00000000000E+00 0.  1.
       21   -1    0    0  501  502  0.00000000000E+00 -0.00000000000E+00 -0.61964102065E+02  0.61964102065E+02  0.00000000000E+00 0.  1.
       23    1    1    2    0    0 -0.78784987424E+02 -0.20625591997E+02  0.28006856049E+02  0.12542776654E+03  0.91188000000E+02 0.  1.
       -1    1    1    2    0  502  0.78784987424E+02  0.20625591997E+02  0.11185322712E+03  0.13836052076E+03  0.00000000000E+00 0.  1.
<scales pt_clust_3="100000.00000" pt_clust_4="100000.00000"></scales>
<rwgt>
<wgt id='bias'>   0.1000000E+01</wgt>
</rwgt>
<clustering>
<clus scale="   81.440">  3  4 -1 -1</clus>
<clus scale="  223.659">  2  3  1 -1</clus>
</clustering>
</event>
<event>
 4   2  0.8512900E+003  0.9188746E+02  0.7546771E-02  0.1178663E+00
       21   -1    0    0  501  502  0.00000000000E+00  0.00000000000E+00  0.81360720883E+01  0.81360720883E+01  0.00000000000E+00 0.  1.
        1   -1    0    0  502    0 -0.00000000000E+00 -0.00000000000E+00 -0.34755522839E+03  0.34755522839E+03  0.00000000000E+00 0. -1.
       23    1    1    2    0    0  0.39914044340E+01 -0.10588836859E+02 -0.26643106951E+03  0.28183119224E+03  0.91188000000E+02 0.  1.
        1    1    1    2  501    0 -0.39914044340E+01  0.10588836859E+02 -0.72988086799E+02  0.73860108245E+02  0.00000000000E+00 0. -1.
<scales pt_clust_3="100000.00000" pt_clust_4="11.31613"></scales>
<rwgt>
<wgt id='bias'>   0.1000000E+01</wgt>
</rwgt>
<clustering>
<clus scale="   11.316">  1  4  2 -1</clus>
<clus scale="   11.316">  1  3  2 -1</clus>
</clustering>
</event>
<event>
 3   1  0.8512900E+003  0.9118800E+02  0.7546771E-02  0.1180022E+00
        2   -1    0    0  501    0  0.00000000000E+00  0.00000000000E+00  0.22614376974E+02  0.22614376974E+02  0.00000000000E+00 0.  1.
       -2   -1    0    0    0  501 -0.00000000000E+00 -0.00000000000E+00 -0.91924391212E+02  0.91924391212E+02  0.00000000000E+00 0. -1.
       23    1    1    2    0    0  0.00000000000E+00  0.00000000000E+00 -0.69310014238E+02  0.11453876819E+03  0.91188000000E+02 0.  1.
<scales pt_clust_3="100000.00000"></scales>
<rwgt>
<wgt id='bias'>   0.1000000E+01</wgt>
</rwgt>
<clustering>
<clus scale="   91.188">  1  3  2 -1</clus>
</clustering>
</event>
<event>
 4   2  0.8512900E+003  0.1864763E+03  0.7546771E-02  0.1065323E+00
       21   -1    0    0  501  502  0.00000000000E+00  0.00000000000E+00  0.10698485537E+03  0.10698485537E+03  0.00000000000E+00 0. -1.
       -1   -1    0    0    0  501 -0.00000000000E+00 -0.00000000000E+00 -0.81257801419E+02  0.81257801419E+02  0.00000000000E+00 0.  1.
       23    1    1    2    0    0 -0.29791711242E+02  0.12010952881E+02 -0.47913219962E+02  0.10790151546E+03  0.91188000000E+02 0.  1.
       -1    1    1    2    0  502  0.29791711242E+02 -0.12010952881E+02  0.73640273916E+02  0.80341141330E+02  0.00000000000E+00 0.  1.
<scales pt_clust_3="100000.00000" pt_clust_4="100000.00000"></scales>
<rwgt>
<wgt id='bias'>   0.1000000E+01</wgt>
</rwgt>
<clustering>
<clus scale="   32.122">  3  4 -1 -1</clus>
<clus scale="  186.476">  1  3  2 -1</clus>
</clustering>
</event>
<event>
 5   3  0.8512900E+003  0.1161221E+03  0.7546771E-02  0.1138552E+00
       21   -1    0    0  503  502  0.00000000000E+00  0.00000000000E+00  0.45059047664E+03  0.45059047664E+03  0.00000000000E+00 0. -1.
        5   -1    0    0  502    0 -0.00000000000E+00 -0.00000000000E+00 -0.21499215089E+03  0.21499215089E+03  0.00000000000E+00 0. -1.
       23    1    1    2    0    0 -0.38253531693E+01  0.10966869999E+02 -0.19927089707E+03  0.21945169702E+03  0.91188000000E+02 0. -1.
       21    1    1    2  503  501  0.10257829974E+02 -0.18440235866E+01  0.43484344395E+03  0.43496832557E+03  0.00000000000E+00 0. -1.
        5    1    1    2  501    0 -0.64324768045E+01 -0.91228464128E+01  0.25778864217E-01  0.11162604941E+02  0.00000000000E+00 0. -1.
<scales pt_clust_3="100000.00000" pt_clust_4="10.42226" pt_clust_5="100000.00000"></scales>
<rwgt>
<wgt id='bias'>   0.1000000E+01</wgt>
</rwgt>
<clustering>
<clus scale="   10.422">  1  4  2 -1</clus>
<clus scale="   10.166">  3  5 -1 -1</clus>
<clus scale="   10.422">  1  3  2 -1</clus>
</clustering>
</event>
<event>
 3   1  0.8512900E+003  0.9118800E+02  0.7546771E-02  0.1180022E+00
       -2   -1    0    0    0  501 -0.00000000000E+00  0.00000000000E+00  0.47729104304E+02  0.47729104304E+02  0.00000000000E+00 0. -1.
        2   -1    0    0  501    0  0.00000000000E+00 -0.00000000000E+00 -0.43554407029E+02  0.43554407029E+02  0.00000000000E+00 0.  1.
       23    1    1    2    0    0  0.00000000000E+00 -0.00000000000E+00  0.41746972748E+01  0.91283511333E+02  0.91188000000E+02 0. -1.
<scales pt_clust_3="100000.00000"></scales>
<rwgt>
<wgt id='bias'>   0.1000000E+01</wgt>
</rwgt>
<clustering>
<clus scale="   91.188">  2  3  1 -1</clus>
</clustering>
</event>
<event>
 3   1  0.8512900E+003  0.9118800E+02  0.7546771E-02  0.1180022E+00
        1   -1    0    0  501    0  0.00000000000E+00  0.00000000000E+00  0.19225999692E+02  0.19225999692E+02  0.00000000000E+00 0. -1.
       -1   -1    0    0    0  501 -0.00000000000E+00 -0.00000000000E+00 -0.10812508422E+03  0.10812508422E+03  0.00000000000E+00 0.  1.
       23    1    1    2    0    0  0.00000000000E+00  0.00000000000E+00 -0.88899084529E+02  0.12735108391E+03  0.91188000000E+02 0. -1.
<scales pt_clust_3="100000.00000"></scales>
<rwgt>
<wgt id='bias'>   0.1000000E+01</wgt>
</rwgt>
<clustering>
<clus scale="   91.188">  1  3  2 -1</clus>
</clustering>
</event>
<event>
 3   1  0.8512900E+003  0.9118800E+02  0.7546771E-02  0.1180022E+00
       -2   -1    0    0    0  501 -0.00000000000E+00  0.00000000000E+00  0.23892149197E+04  0.23892149197E+04  0.00000000000E+00 0.  1.
        2   -1    0    0  501    0  0.00000000000E+00 -0.00000000000E+00 -0.87008197498E+00  0.87008197498E+00  0.00000000000E+00 0. -1.
       23    1    1    2    0    0  0.00000000000E+00 -0.00000000000E+00  0.23883448377E+04  0.23900850017E+04  0.91188000000E+02 0.  1.
<scales pt_clust_3="100000.00000"></scales>
<rwgt>
<wgt id='bias'>   0.1000000E+01</wgt>
</rwgt>
<clustering>
<clus scale="   91.188">  2  3  1 -1</clus>
</clustering>
</event>
<event>
 4   2  0.8512900E+003  0.9676385E+02  0.7546771E-02  0.1169553E+00
       21   -1    0    0  501  502  0.00000000000E+00  0.00000000000E+00  0.18743224648E+02  0.18743224648E+02  0.00000000000E+00 0.  1.
       -2   -1    0    0    0  501 -0.00000000000E+00 -0.00000000000E+00 -0.51216457125E+03  0.51216457125E+03  0.00000000000E+00 0.  1.
       23    1    1    2    0    0 -0.20507470747E+02 -0.25048638853E+02 -0.48870596038E+03  0.49819349426E+03  0.91188000000E+02 0.  1.
       -2    1    1    2    0  502  0.20507470747E+02  0.25048638853E+02 -0.47153862254E+01  0.32714301645E+02  0.00000000000E+00 0.  1.
<scales pt_clust_3="100000.00000" pt_clust_4="32.37268"></scales>
<rwgt>
<wgt id='bias'>   0.1000000E+01</wgt>
</rwgt>
<clustering>
<clus scale="   32.373">  1  4  2 -1</clus>
<clus scale="   32.373">  1  3  2 -1</clus>
</clustering>
</event>
<event>
 4   2  0.8512900E+003  0.9213977E+02  0.7546771E-02  0.1178176E+00
       21   -1    0    0  501  502  0.00000000000E+00  0.00000000000E+00  0.44955549972E+01  0.44955549972E+01  0.00000000000E+00 0. -1.
        2   -1    0    0  502    0 -0.00000000000E+00 -0.00000000000E+00 -0.40781025517E+04  0.40781025517E+04  0.00000000000E+00 0. -1.
       23    1    1    2    0    0  0.11756646560E+02 -0.60222432498E+01 -0.40666031487E+04  0.40676468512E+04  0.91188000000E+02 0. -1.
        2    1    1    2  501    0 -0.11756646560E+02  0.60222432498E+01 -0.70038479771E+01  0.14951255418E+02  0.00000000000E+00 0. -1.
<scales pt_clust_3="100000.00000" pt_clust_4="13.20932"></scales>
<rwgt>
<wgt id='bias'>   0.1000000E+01</wgt>
</rwgt>
<clustering>
<clus scale="   13.209">  1  4  2 -1</clus>
<clus scale="   13.209">  1  3  2 -1</clus>
</clustering>
</event>
<event>
 4   2  0.8512900E+003  0.1115593E+03  0.7546771E-02  0.1145224E+00
       -1   -1    0    0    0  501 -0.00000000000E+00  0.00000000000E+00  0.10848713605E+02  0.10848713605E+02  0.00000000000E+00 0.  1.
        1   -1    0    0  502    0  0.00000000000E+00 -0.00000000000E+00 -0.37436135560E+04  0.37436135560E+04  0.00000000000E+00 0. -1.
       23    1    1    2    0    0  0.35596789337E+02  0.53507908722E+02 -0.28438663230E+03  0.30548524626E+03  0.91188000000E+02 0.  1.
       21    1    1    2  502  501 -0.35596789337E+02 -0.53507908722E+02 -0.34483782101E+04  0.34489770234E+04  0.00000000000E+00 0. -1.
<scales pt_clust_3="100000.00000" pt_clust_4="64.26685"></scales>
<rwgt>
<wgt id='bias'>   0.1000000E+01</wgt>
</rwgt>
<clustering>
<clus scale="   64.267">  2  4  1 -1</clus>
<clus scale="   64.267">  2  3  1 -1</clus>
</clustering>
</event>
<event>
 4   2  0.8512900E+003  0.9491925E+02  0.7546771E-02  0.1172927E+00
        4   -1    0    0  502    0 -0.00000000000E+00  0.00000000000E+00  0.25765636622E+03  0.25765636622E+03  0.00000000000E+00 0. -1.
       21   -1    0    0  501  502  0.00000000000E+00 -0.00000000000E+00 -0.16277169692E+02  0.16277169692E+02  0.00000000000E+00 0. -1.
       23    1    1    2    0    0  0.46398096420E+01  0.25940026058E+02  0.22132029846E+03  0.24081598502E+03  0.91188000000E+02 0. -1.
        4    1    1    2  501    0 -0.46398096420E+01 -0.25940026058E+02  0.20058898063E+02  0.33117550890E+02  0.00000000000E+00 0. -1.
<scales pt_clust_3="100000.00000" pt_clust_4="26.35171"></scales>
<rwgt>
<wgt id='bias'>   0.1000000E+01</wgt>
</rwgt>
<clustering>
<clus scale="   26.352">  2  4  1 -1</clus>
<clus scale="   26.352">  2  3  1 -1</clus>
</clustering>
</event>
<event>
 3   1  0.8512900E+003  0.9118800E+02  0.7546771E-02  0.1180022E+00
       -3   -1    0    0    0  501 -0.00000000000E+00  0.00000000000E+00  0.80088218367E+01  0.80088218367E+01  0.00000000000E+00 0.  1.
        3   -1    0    0  501    0  0.00000000000E+00 -0.00000000000E+00 -0.25956537408E+03  0.25956537408E+03  0.00000000000E+00 0. -1.
       23    1    1    2    0    0  0.00000000000E+00 -0.00000000000E+00 -0.25155655225E+03  0.26757419592E+03  0.91188000000E+02 0.  1.
<scales pt_clust_3="100000.00000"></scales>
<rwgt>
<wgt id='bias'>   0.1000000E+01</wgt>
</rwgt>
<clustering>
<clus scale="   91.188">  2  3  1 -1</clus>
</clustering>
</event>
<event>
 3   1  0.8512900E+003  0.9118800E+02  0.7546771E-02  0.1180022E+00
        4   -1    0    0  501    0  0.00000000000E+00  0.00000000000E+00  0.18210079700E+03  0.18210079700E+03  0.00000000000E+00 0. -1.
       -4   -1    0    0    0  501 -0.00000000000E+00 -0.00000000000E+00 -0.11415726182E+02  0.11415726182E+02  0.00000000000E+00 0.  1.
       23    1    1    2    0    0  0.00000000000E+00  0.00000000000E+00  0.17068507082E+03  0.19351652318E+03  0.91188000000E+02 0. -1.
<scales pt_clust_3="100000.00000"></scales>
<rwgt>
<wgt id='bias'>   0.1000000E+01</wgt>
</rwgt>
<clustering>
<clus scale="   91.188">  1  3  2 -1</clus>
</clustering>
</event>
<event>
 5   3  0.8512900E+003  0.1414027E+03  0.7546771E-02  0.1106889E+00
       21   -1    0    0  503  502  0.00000000000E+00  0.00000000000E+00  0.28377146540E+04  0.28377146540E+04  0.00000000000E+00 0.  1.
        5   -1    0    0  502    0 -0.00000000000E+00 -0.00000000000E+00 -0.72844911616E+01  0.72844911616E+01  0.00000000000E+00 0. -1.
       23    1    1    2    0    0  0.26504265101E+02  0.97627503078E+02  0.11515025929E+04  0.11595288173E+04  0.91188000000E+02 0.  1.
       21    1    1    2  503  501  0.10452303026E+02  0.10535905018E+02  0.65744402511E+03  0.65761151304E+03  0.00000000000E+00 0.  1.
        5    1    1    2  501    0 -0.36956568127E+02 -0.10816340810E+03  0.10214835448E+04  0.10278588148E+04  0.00000000000E+00 0. -1.
<scales pt_clust_3="100000.00000" pt_clust_4="14.84102" pt_clust_5="108.07155"></scales>
<rwgt>
<wgt id='bias'>   0.1000000E+01</wgt>
</rwgt>
<clustering>
<clus scale="   14.841">  1  4  2 -1</clus>
<clus scale="  108.072">  1  5  2 -1</clus>
<clus scale="   14.841">  1  3  2 -1</clus>
</clustering>
</event>
<event>
 5   3  0.8512900E+003  0.3785255E+03  0.7546771E-02  0.9721457E-01
        2   -1    0    0  503    0 -0.00000000000E+00  0.00000000000E+00  0.94472472382E+03  0.94472472382E+03  0.00000000000E+00 0. -1.
       21   -1    0    0  501  502  0.00000000000E+00 -0.00000000000E+00 -0.22360595889E+03  0.22360595889E+03  0.00000000000E+00 0. -1.
       23    1    1    2    0    0  0.50422992946E+02  0.54421962626E+02  0.87102939684E+03  0.87892644160E+03  0.91188000000E+02 0. -1.
       21    1    1    2  503  502 -0.23306906947E+02  0.37312470343E+02 -0.18297760781E+03  0.18819202245E+03  0.00000000000E+00 0. -1.
        2    1    1    2  501    0 -0.27116085998E+02 -0.91734432969E+02  0.33066975897E+02  0.10121221866E+03  0.00000000000E+00 0. -1.
<scales pt_clust_3="100000.00000" pt_clust_4="43.99355" pt_clust_5="100000.00000"></scales>
<rwgt>
<wgt id='bias'>   0.1000000E+01</wgt>
</rwgt>
<clustering>
<clus scale="   43.994">  2  4  1 -1</clus>
<clus scale="   75.517">  3  5 -1 -1</clus>
<clus scale="   43.994">  2  3  1 -1</clus>
</clustering>
</event>
<event>
 3   1  0.8512900E+003  0.9118800E+02  0.7546771E-02  0.1180022E+00
       -4   -1    0    0    0  501 -0.00000000000E+00  0.00000000000E+00  0.44004859734E+02  0.44004859734E+02  0.00000000000E+00 0.  1.
        4   -1    0    0  501    0  0.00000000000E+00 -0.00000000000E+00 -0.47240528627E+02  0.47240528627E+02  0.00000000000E+00 0. -1.
       23    1    1    2    0    0  0.00000000000E+00 -0.00000000000E+00 -0.32356688933E+01  0.91245388361E+02  0.91188000000E+02 0.  1.
<scales pt_clust_3="100000.00000"></scales>
<rwgt>
<wgt id='bias'>   0.1000000E+01</wgt>
</rwgt>
<clustering>
<clus scale="   91.188">  2  3  1 -1</clus>
</clustering>
</event>
<event>
 3   1  0.8512900E+003  0.9118800E+02  0.7546771E-02  0.1180022E+00
       -1   -1    0    0    0  501 -0.00000000000E+00  0.00000000000E+00  0.88033580606E+00  0.88033580606E+00  0.00000000000E+00 0.  1.
        1   -1    0    0  501    0  0.00000000000E+00 -0.00000000000E+00 -0.23613862139E+04  0.23613862139E+04  0.00000000000E+00 0. -1.
       23    1    1    2    0    0  0.00000000000E+00 -0.00000000000E+00 -0.23605058781E+04  0.23622665497E+04  0.91188000000E+02 0.  1.
<scales pt_clust_3="100000.00000"></scales>
<rwgt>
<wgt id='bias'>   0.1000000E+01</wgt>
</rwgt>
<clustering>
<clus scale="   91.188">  2  3  1 -1</clus>
</clustering>
</event>
<event>
 3   1  0.8512900E+003  0.9118800E+02  0.7546771E-02  0.1180022E+00
        4   -1    0    0  501    0  0.00000000000E+00  0.00000000000E+00  0.82642653069E+01  0.82642653069E+01  0.00000000000E+00 0. -1.
       -4   -1    0    0    0  501 -0.00000000000E+00 -0.00000000000E+00 -0.25154236448E+03  0.25154236448E+03  0.00000000000E+00 0.  1.
       23    1    1    2    0    0  0.00000000000E+00  0.00000000000E+00 -0.24327809917E+03  0.25980662979E+03  0.91188000000E+02 0. -1.
<scales pt_clust_3="100000.00000"></scales>
<rwgt>
<wgt id='bias'>   0.1000000E+01</wgt>
</rwgt>
<clustering>
<clus scale="   91.188">  1  3  2 -1</clus>
</clustering>
</event>
<event>
 3   1  0.8512900E+003  0.9118800E+02  0.7546771E-02  0.1180022E+00
        1   -1    0    0  501    0  0.00000000000E+00  0.00000000000E+00  0.33414404540E+04  0.33414404540E+04  0.00000000000E+00 0. -1.
       -1   -1    0    0    0  501 -0.00000000000E+00 -0.00000000000E+00 -0.62213074409E+00  0.62213074409E+00  0.00000000000E+00 0.  1.
       23    1    1    2    0    0  0.00000000000E+00  0.00000000000E+00  0.33408183233E+04  0.33420625848E+04  0.91188000000E+02 0. -1.
<scales pt_clust_3="100000.00000"></scales>
<rwgt>
<wgt id='bias'>   0.1000000E+01</wgt>
</rwgt>
<clustering>
<clus scale="   91.188">  1  3  2 -1</clus>
</clustering>
</event>
<event>
 3   1  0.8512900E+003  0.9118800E+02  0.7546771E-02  0.1180022E+00
        3   -1    0    0  501    0  0.00000000000E+00  0.00000000000E+00  0.22055206644E+01  0.22055206644E+01  0.00000000000E+00 0. -1.
       -3   -1    0    0    0  501 -0.00000000000E+00 -0.00000000000E+00 -0.94254969792E+03  0.94254969792E+03  0.00000000000E+00 0.  1.
       23    1    1    2    0    0  0.00000000000E+00  0.00000000000E+00 -0.94034417726E+03  0.94475521859E+03  0.91188000000E+02 0. -1.
<scales pt_clust_3="100000.00000"></scales>
<rwgt>
<wgt id='bias'>   0.1000000E+01</wgt>
</rwgt>
<clustering>
<clus scale="   91.188">  1  3  2 -1</clus>
</clustering>
</event>
<event>
 4   2  0.8512900E+003  0.9266188E+02  0.7546771E-02  0.1177174E+00
       21   -1    0    0  501  502  0.00000000000E+00  0.00000000000E+00  0.51046905857E+00  0.51046905857E+00  0.00000000000E+00 0.  1.
        2   -1    0    0  502    0 -0.00000000000E+00 -0.00000000000E+00 -0.74627873880E+04  0.74627873880E+04  0.00000000000E+00 0. -1.
       23    1    1    2    0    0  0.16447338010E+02 -0.67638774251E+00 -0.71396365991E+04  0.71402378806E+04  0.91188000000E+02 0. -1.
        2    1    1    2  501    0 -0.16447338010E+02  0.67638774251E+00 -0.32264031977E+03  0.32305997643E+03  0.00000000000E+00 0. -1.
<scales pt_clust_3="100000.00000" pt_clust_4="16.46124"></scales>
<rwgt>
<wgt id='bias'>   0.1000000E+01</wgt>
</rwgt>
<clustering>
<clus scale="   16.461">  1  4  2 -1</clus>
<clus scale="   16.461">  1  3  2 -1</clus>
</clustering>
</event>
<event>
 4   2  0.8512900E+003  0.9996047E+02  0.7546771E-02  0.1163903E+00
        2   -1    0    0  502    0  0.00000000000E+00  0.00000000000E+00  0.69488649407E+03  0.69488649407E+03  0.00000000000E+00 0. -1.
       -2   -1    0    0    0  501 -0.00000000000E+00 -0.00000000000E+00 -0.77570431198E+01  0.77570431198E+01  0.00000000000E+00 0.  1.
       23    1    1    2    0    0  0.38728897026E+02 -0.13301027891E+02  0.38558584342E+03  0.39833219654E+03  0.91188000000E+02 0. -1.
       21    1    1    2  502  501 -0.38728897026E+02  0.13301027891E+02  0.30154360753E+03  0.30431134065E+03  0.00000000000E+00 0. -1.
<scales pt_clust_3="100000.00000" pt_clust_4="40.94930"></scales>
<rwgt>
<wgt id='bias'>   0.1000000E+01</wgt>
</rwgt>
<clustering>
<clus scale="   40.949">  1  4  2 -1</clus>
<clus scale="   40.949">  1  3  2 -1</clus>
</clustering>
</event>
<event>
 3   1  0.8512900E+003  0.9118800E+02  0.7546771E-02  0.1180022E+00
        2   -1    0    0  501    0  0.00000000000E+00  0.00000000000E+00  0.62246071904E+04  0.62246071904E+04  0.00000000000E+00 0. -1.
       -2   -1    0    0    0  501 -0.00000000000E+00 -0.00000000000E+00 -0.33396691107E+00  0.33396691107E+00  0.00000000000E+00 0.  1.
       23    1    1    2    0    0  0.00000000000E+00  0.00000000000E+00  0.62242732235E+04  0.62249411574E+04  0.91188000000E+02 0. -1.
<scales pt_clust_3="100000.00000"></scales>
<rwgt>
<wgt id='bias'>   0.1000000E+01</wgt>
</rwgt>
<clustering>
<clus scale="   91.188">  1  3  2 -1</clus>
</clustering>
</event>
<event>
 3   1  0.8512900E+003  0.9118800E+02  0.7546771E-02  0.1180022E+00
       -4   -1    0    0    0  501 -0.00000000000E+00  0.00000000000E+00  0.79087775158E+03  0.79087775158E+03  0.00000000000E+00 0.  1.
        4   -1    0    0  501    0  0.00000000000E+00 -0.00000000000E+00 -0.26284881979E+01  0.26284881979E+01  0.00000000000E+00 0. -1.
       23    1    1    2    0    0  0.00000000000E+00 -0.00000000000E+00  0.78824926339E+03  0.79350623978E+03  0.91188000000E+02 0.  1.
<scales pt_clust_3="100000.00000"></scales>
<rwgt>
<wgt id='bias'>   0.1000000E+01</wgt>
</rwgt>
<clustering>
<clus scale="   91.188">  2  3  1 -1</clus>
</clustering>
</event>
<event>
 3   1  0.8512900E+003  0.9118800E+02  0.7546771E-02  0.1180022E+00
       -1   -1    0    0    0  501 -0.00000000000E+00  0.00000000000E+00  0.73741545792E+02  0.73741545792E+02  0.00000000000E+00 0.  1.
        1   -1    0    0  501    0  0.00000000000E+00 -0.00000000000E+00 -0.28190524265E+02  0.28190524265E+02  0.00000000000E+00 0. -1.
       23    1    1    2    0    0  0.00000000000E+00 -0.00000000000E+00  0.45551021526E+02  0.10193207006E+03  0.91188000000E+02 0.  1.
<scales pt_clust_3="100000.00000"></scales>
<rwgt>
<wgt id='bias'>   0.1000000E+01</wgt>
</rwgt>
<clustering>
<clus scale="   91.188">  2  3  1 -1</clus>
</clustering>
</event>
<event>
 4   2  0.8512900E+003  0.1136648E+03  0.7546771E-02  0.1142103E+00
       21   -1    0    0  501  502  0.00000000000E+00  0.00000000000E+00  0.35648626797E+02  0.35648626797E+02  0.00000000000E+00 0.  1.
        4   -1    0    0  502    0 -0.00000000000E+00 -0.00000000000E+00 -0.90604341753E+02  0.90604341753E+02  0.00000000000E+00 0. -1.
       23    1    1    2    0    0 -0.61687994553E+01 -0.10402711478E+02 -0.63209460183E+02  0.11161074184E+03  0.91188000000E+02 0. -1.
        4    1    1    2  501    0  0.61687994553E+01  0.10402711478E+02  0.82537452270E+01  0.14642226712E+02  0.00000000000E+00 0. -1.
<scales pt_clust_3="100000.00000" pt_clust_4="100000.00000"></scales>
<rwgt>
<wgt id='bias'>   0.1000000E+01</wgt>
</rwgt>
<clustering>
<clus scale="   12.094">  3  4 -1 -1</clus>
<clus scale="  113.665">  1  3  2 -1</clus>
</clustering>
</event>
<event>
 3   1  0.8512900E+003  0.9118800E+02  0.7546771E-02  0.1180022E+00
        1   -1    0    0  501    0  0.00000000000E+00  0.00000000000E+00  0.89503310778E+03  0.89503310778E+03  0.00000000000E+00 0. -1.
       -1   -1    0    0    0  501 -0.00000000000E+00 -0.00000000000E+00 -0.23226099883E+01  0.23226099883E+01  0.00000000000E+00 0.  1.
       23    1    1    2    0    0  0.00000000000E+00  0.00000000000E+00  0.89271049779E+03  0.89735571777E+03  0.91188000000E+02 0. -1.
<scales pt_clust_3="100000.00000"></scales>
<rwgt>
<wgt id='bias'>   0.1000000E+01</wgt>
</rwgt>
<clustering>
<clus scale="   91.188">  1  3  2 -1</clus>
</clustering>
</event>
<event>
 4   2  0.8512900E+003  0.9211382E+02  0.7546771E-02  0.1178226E+00
       -1   -1    0    0    0  501 -0.00000000000E+00  0.00000000000E+00  0.41622490439E+02  0.41622490439E+02  0.00000000000E+00 0.  1.
       21   -1    0    0  501  502  0.00000000000E+00 -0.00000000000E+00 -0.12097742405E+03  0.12097742405E+03  0.00000000000E+00 0.  1.
       23    1    1    2    0    0  0.10398419027E+02  0.78471617768E+01 -0.10715245932E+02  0.92734960536E+02  0.91188000000E+02 0.  1.
       -1    1    1    2    0  502 -0.10398419027E+02 -0.78471617768E+01 -0.68639687683E+02  0.69864953957E+02  0.00000000000E+00 0.  1.
<scales pt_clust_3="100000.00000" pt_clust_4="13.02709"></scales>
<rwgt>
<wgt id='bias'>   0.1000000E+01</wgt>
</rwgt>
<clustering>
<clus scale="   13.027">  2  4  1 -1</clus>
<clus scale="   13.027">  2  3  1 -1</clus>
</clustering>
</event>
<event>
 4   2  0.8512900E+003  0.9260521E+02  0.7546771E-02  0.1177283E+00
        2   -1    0    0  502    0 -0.00000000000E+00  0.00000000000E+00  0.12687787658E+03  0.12687787658E+03  0.00000000000E+00 0. -1.
       21   -1    0    0  501  502  0.00000000000E+00 -0.00000000000E+00 -0.26174527998E+02  0.26174527998E+02  0.00000000000E+00 0.  1.
       23    1    1    2    0    0  0.12880987246E+02  0.97239199637E+01  0.62897116041E+02  0.11194540188E+03  0.91188000000E+02 0.  1.
        2    1    1    2  501    0 -0.12880987246E+02 -0.97239199637E+01  0.37806232542E+02  0.41107002699E+02  0.00000000000E+00 0. -1.
<scales pt_clust_3="100000.00000" pt_clust_4="16.13923"></scales>
<rwgt>
<wgt id='bias'>   0.1000000E+01</wgt>
</rwgt>
<clustering>
<clus scale="   16.139">  2  4  1 -1</clus>
<clus scale="   16.139">  2  3  1 -1</clus>
</clustering>
</event>
<event>
 3   1  0.8512900E+003  0.9118800E+02  0.7546771E-02  0.1180022E+00
        2   -1    0    0  501    0  0.00000000000E+00  0.00000000000E+00  0.46978572247E+03  0.46978572247E+03  0.00000000000E+00 0. -1.
       -2   -1    0    0    0  501 -0.00000000000E+00 -0.00000000000E+00 -0.44250234448E+01  0.44250234448E+01  0.00000000000E+00 0.  1.
       23    1    1    2    0    0  0.00000000000E+00  0.00000000000E+00  0.46536069903E+03  0.47421074592E+03  0.91188000000E+02 0. -1.
<scales pt_clust_3="100000.00000"></scales>
<rwgt>
<wgt id='bias'>   0.1000000E+01</wgt>
</rwgt>
<clustering>
<clus scale="   91.188">  1  3  2 -1</clus>
</clustering>
</event>
<event>
 4   2  0.8512900E+003  0.3135080E+03  0.7546771E-02  0.9952853E-01
        5   -1    0    0  502    0 -0.00000000000E+00  0.00000000000E+00  0.15726472583E+04  0.15726472583E+04  0.00000000000E+00 0. -1.
       21   -1    0    0  501  502  0.00000000000E+00 -0.00000000000E+00 -0.15624492647E+02  0.15624492647E+02  0.00000000000E+00 0. -1.
       23    1    1    2    0    0 -0.13758118972E+03  0.40213110101E+02  0.81062395040E+03  0.82823433779E+03  0.91188000000E+02 0. -1.
        5    1    1    2  501    0  0.13758118972E+03 -0.40213110101E+02  0.74639881524E+03  0.76003741315E+03  0.00000000000E+00 0. -1.
<scales pt_clust_3="100000.00000" pt_clust_4="100000.00000"></scales>
<rwgt>
<wgt id='bias'>   0.1000000E+01</wgt>
</rwgt>
<clustering>
<clus scale="  143.338">  3  4 -1 -1</clus>
<clus scale="  313.508">  2  3  1 -1</clus>
</clustering>
</event>
<event>
 3   1  0.8512900E+003  0.9118800E+02  0.7546771E-02  0.1180022E+00
        2   -1    0    0  501    0  0.00000000000E+00  0.00000000000E+00  0.18852278844E+03  0.18852278844E+03  0.00000000000E+00 0. -1.
       -2   -1    0    0    0  501 -0.00000000000E+00 -0.00000000000E+00 -0.11026851731E+02  0.11026851731E+02  0.00000000000E+00 0.  1.
       23    1    1    2    0    0  0.00000000000E+00  0.00000000000E+00  0.17749593671E+03  0.19954964017E+03  0.91188000000E+02 0. -1.
<scales pt_clust_3="100000.00000"></scales>
<rwgt>
<wgt id='bias'>   0.1000000E+01</wgt>
</rwgt>
<clustering>
<clus scale="   91.188">  1  3  2 -1</clus>
</clustering>
</event>
<event>
 5   3  0.8512900E+003  0.2666186E+02  0.7546771E-02  0.1172767E+00
       21   -1    0    0  503  502  0.00000000000E+00  0.00000000000E+00  0.28476294554E+01  0.28476294554E+01  0.00000000000E+00 0. -1.
       -4   -1    0    0    0  501 -0.00000000000E+00 -0.00000000000E+00 -0.17054871009E+04  0.17054871009E+04  0.00000000000E+00 0.  1.
       23    1    1    2    0    0 -0.18789583990E+02 -0.36517448686E+00 -0.93595534419E+03  0.94057473891E+03  0.91188000000E+02 0. -1.
       21    1    1    2  503  501  0.27204254276E+02  0.76484712637E+01 -0.45458229935E+03  0.45545980881E+03  0.00000000000E+00 0. -1.
       -4    1    1    2    0  502 -0.84146702866E+01 -0.72832967768E+01 -0.31210182790E+03  0.31230018262E+03  0.00000000000E+00 0.  1.
<scales pt_clust_3="100000.00000" pt_clust_4="26.66186" pt_clust_5="11.12894"></scales>
<rwgt>
<wgt id='bias'>   0.1000000E+01</wgt>
</rwgt>
<clustering>
<clus scale="   11.129">  1  5  2 -1</clus>
<clus scale="   26.662">  2  4  1 -1</clus>
<clus scale="   11.129">  1  3  2 -1</clus>
</clustering>
</event>
<event>
 3   1  0.8512900E+003  0.9118800E+02  0.7546771E-02  0.1180022E+00
        2   -1    0    0  501    0  0.00000000000E+00  0.00000000000E+00  0.28804814162E+04  0.28804814162E+04  0.00000000000E+00 0. -1.
       -2   -1    0    0    0  501 -0.00000000000E+00 -0.00000000000E+00 -0.72168937606E+00  0.72168937606E+00  0.00000000000E+00 0.  1.
       23    1    1    2    0    0  0.00000000000E+00  0.00000000000E+00  0.28797597268E+04  0.28812031055E+04  0.91188000000E+02 0. -1.
<scales pt_clust_3="100000.00000"></scales>
<rwgt>
<wgt id='bias'>   0.1000000E+01</wgt>
</rwgt>
<clustering>
<clus scale="   91.188">  1  3  2 -1</clus>
</clustering>
</event>
<event>
 3   1  0.8512900E+003  0.9118800E+02  0.7546771E-02  0.1180022E+00
        4   -1    0    0  501    0  0.00000000000E+00  0.00000000000E+00  0.36211417868E+02  0.36211417868E+02  0.00000000000E+00 0. -1.
       -4   -1    0    0    0  501 -0.00000000000E+00 -0.00000000000E+00 -0.57407661959E+02  0.57407661959E+02  0.00000000000E+00 0.  1.
       23    1    1    2    0    0  0.00000000000E+00  0.00000000000E+00 -0.21196244091E+02  0.93619079827E+02  0.91188000000E+02 0. -1.
<scales pt_clust_3="100000.00000"></scales>
<rwgt>
<wgt id='bias'>   0.1000000E+01</wgt>
</rwgt>
<clustering>
<clus scale="   91.188">  1  3  2 -1</clus>
</clustering>
</event>
<event>
 5   3  0.8512900E+003  0.6323300E+02  0.7546771E-02  0.1146116E+00
       21   -1    0    0  503  502  0.00000000000E+00  0.00000000000E+00  0.60700454161E+02  0.60700454161E+02  0.00000000000E+00 0.  1.
       -3   -1    0    0    0  501 -0.00000000000E+00 -0.00000000000E+00 -0.42789486208E+03  0.42789486208E+03  0.00000000000E+00 0.  1.
       23    1    1    2    0    0  0.29322395769E+02  0.65259215258E+02 -0.35608682710E+03  0.37447516319E+03  0.91188000000E+02 0.  1.
       21    1    1    2  503  501  0.20546446326E+01 -0.10848636178E+02 -0.42494110024E+02  0.43905168924E+02  0.00000000000E+00 0. -1.
       -3    1    1    2    0  502 -0.31377040402E+02 -0.54410579080E+02  0.31386529204E+02  0.70214984125E+02  0.00000000000E+00 0.  1.
<scales pt_clust_3="100000.00000" pt_clust_4="11.04149" pt_clust_5="63.23300"></scales>
<rwgt>
<wgt id='bias'>   0.1000000E+01</wgt>
</rwgt>
<clustering>
<clus scale="   11.041">  2  4  1 -1</clus>
<clus scale="   63.233">  1  5  2 -1</clus>
<clus scale="   63.233">  1  3  2 -1</clus>
</clustering>
</event>
<event>
 4   2  0.8512900E+003  0.1007826E+03  0.7546771E-02  0.1162488E+00
        4   -1    0    0  502    0 -0.00000000000E+00  0.00000000000E+00  0.10037050733E+03  0.10037050733E+03  0.00000000000E+00 0. -1.
       21   -1    0    0  501  502  0.00000000000E+00 -0.00000000000E+00 -0.18009215997E+03  0.18009215997E+03  0.00000000000E+00 0. -1.
       23    1    1    2    0    0  0.37014185627E+02  0.21721897772E+02  0.71304892357E+02  0.12345659075E+03  0.91188000000E+02 0. -1.
        4    1    1    2  501    0 -0.37014185627E+02 -0.21721897772E+02 -0.15102654500E+03  0.15700607655E+03  0.00000000000E+00 0. -1.
<scales pt_clust_3="100000.00000" pt_clust_4="42.91726"></scales>
<rwgt>
<wgt id='bias'>   0.1000000E+01</wgt>
</rwgt>
<clustering>
<clus scale="   42.917">  2  4  1 -1</clus>
<clus scale="   42.917">  2  3  1 -1</clus>
</clustering>
</event>
<event>
 4   2  0.8512900E+003  0.1036528E+03  0.7546771E-02  0.1157663E+00
       21   -1    0    0  501  502  0.00000000000E+00  0.00000000000E+00  0.14898723745E+02  0.14898723745E+02  0.00000000000E+00 0.  1.
        2   -1    0    0  502    0 -0.00000000000E+00 -0.00000000000E+00 -0.15557809593E+04  0.15557809593E+04  0.00000000000E+00 0.  1.
       23    1    1    2    0    0 -0.23957546778E+02 -0.43066172006E+02 -0.15077214530E+04  0.15112802157E+04  0.91188000000E+02 0.  1.
        2    1    1    2  501    0  0.23957546778E+02  0.43066172006E+02 -0.33160782536E+02  0.59399467315E+02  0.00000000000E+00 0.  1.
<scales pt_clust_3="100000.00000" pt_clust_4="49.28143"></scales>
<rwgt>
<wgt id='bias'>   0.1000000E+01</wgt>
</rwgt>
<clustering>
<clus scale="   49.281">  1  4  2 -1</clus>
<clus scale="   49.281">  1  3  2 -1</clus>
</clustering>
</event>
<event>
 3   1  0.8512900E+003  0.9118800E+02  0.7546771E-02  0.1180022E+00
        1   -1    0    0  501    0  0.00000000000E+00  0.00000000000E+00  0.56030412133E+04  0.56030412133E+04  0.00000000000E+00 0. -1.
       -1   -1    0    0    0  501 -0.00000000000E+00 -0.00000000000E+00 -0.37101508928E+00  0.37101508928E+00  0.00000000000E+00 0.  1.
       23    1    1    2    0    0  0.00000000000E+00  0.00000000000E+00  0.56026701982E+04  0.56034122284E+04  0.91188000000E+02 0. -1.
<scales pt_clust_3="100000.00000"></scales>
<rwgt>
<wgt id='bias'>   0.1000000E+01</wgt>
</rwgt>
<clustering>
<clus scale="   91.188">  1  3  2 -1</clus>
</clustering>
</event>
<event>
 3   1  0.8512900E+003  0.9118800E+02  0.7546771E-02  0.1180022E+00
       -1   -1    0    0    0  501 -0.00000000000E+00  0.00000000000E+00  0.12601582837E+00  0.12601582837E+00  0.00000000000E+00 0.  1.
        1   -1    0    0  501    0  0.00000000000E+00 -0.00000000000E+00 -0.16496442256E+05  0.16496442256E+05  0.00000000000E+00 0. -1.
       23    1    1    2    0    0  0.00000000000E+00 -0.00000000000E+00 -0.16496316240E+05  0.16496568271E+05  0.91188000000E+02 0.  1.
<scales pt_clust_3="100000.00000"></scales>
<rwgt>
<wgt id='bias'>   0.1000000E+01</wgt>
</rwgt>
<clustering>
<clus scale="   91.188">  2  3  1 -1</clus>
</clustering>
</event>
<event>
 3   1  0.8512900E+003  0.9118800E+02  0.7546771E-02  0.1180022E+00
       -1   -1    0    0    0  501 -0.00000000000E+00  0.00000000000E+00  0.17831605591E+01  0.17831605591E+01  0.00000000000E+00 0.  1.
        1   -1    0    0  501    0  0.00000000000E+00 -0.00000000000E+00 -0.11658023869E+04  0.11658023869E+04  0.00000000000E+00 0. -1.
       23    1    1    2    0    0  0.00000000000E+00 -0.00000000000E+00 -0.11640192263E+04  0.11675855474E+04  0.91188000000E+02 0.  1.
<scales pt_clust_3="100000.00000"></scales>
<rwgt>
<wgt id='bias'>   0.1000000E+01</wgt>
</rwgt>
<clustering>
<clus scale="   91.188">  2  3  1 -1</clus>
</clustering>
</event>
<event>
 3   1  0.8512900E+003  0.9118800E+02  0.7546771E-02  0.1180022E+00
       -1   -1    0    0    0  501 -0.00000000000E+00  0.00000000000E+00  0.58836999042E+02  0.58836999042E+02  0.00000000000E+00 0.  1.
        1   -1    0    0  501    0  0.00000000000E+00 -0.00000000000E+00 -0.35331727822E+02  0.35331727822E+02  0.00000000000E+00 0. -1.
       23    1    1    2    0    0  0.00000000000E+00 -0.00000000000E+00  0.23505271220E+02  0.94168726864E+02  0.91188000000E+02 0.  1.
<scales pt_clust_3="100000.00000"></scales>
<rwgt>
<wgt id='bias'>   0.1000000E+01</wgt>
</rwgt>
<clustering>
<clus scale="   91.188">  2  3  1 -1</clus>
</clustering>
</event>
<event>
 4   2  0.8512900E+003  0.9940107E+02  0.7546771E-02  0.1164874E+00
        3   -1    0    0  502    0 -0.00000000000E+00  0.00000000000E+00  0.50171194490E+03  0.50171194490E+03  0.00000000000E+00 0. -1.
       21   -1    0    0  501  502  0.00000000000E+00 -0.00000000000E+00 -0.41007151564E+02  0.41007151564E+02  0.00000000000E+00 0. -1.
       23    1    1    2    0    0 -0.24954626855E+02  0.30701601179E+02  0.48580143940E+03  0.49586652598E+03  0.91188000000E+02 0. -1.
        3    1    1    2  501    0  0.24954626855E+02 -0.30701601179E+02 -0.25096646072E+02  0.46852570479E+02  0.00000000000E+00 0. -1.
<scales pt_clust_3="100000.00000" pt_clust_4="39.56415"></scales>
<rwgt>
<wgt id='bias'>   0.1000000E+01</wgt>
</rwgt>
<clustering>
<clus scale="   39.564">  2  4  1 -1</clus>
<clus scale="   39.564">  2  3  1 -1</clus>
</clustering>
</event>
<event>
 3   1  0.8512900E+003  0.9118800E+02  0.7546771E-02  0.1180022E+00
       -3   -1    0    0    0  501 -0.00000000000E+00  0.00000000000E+00  0.40180303253E+04  0.40180303253E+04  0.00000000000E+00 0.  1.
        3   -1    0    0  501    0  0.00000000000E+00 -0.00000000000E+00 -0.51737111661E+00  0.51737111661E+00  0.00000000000E+00 0. -1.
       23    1    1    2    0    0  0.00000000000E+00 -0.00000000000E+00  0.40175129542E+04  0.40185476964E+04  0.91188000000E+02 0.  1.
<scales pt_clust_3="100000.00000"></scales>
<rwgt>
<wgt id='bias'>   0.1000000E+01</wgt>
</rwgt>
<clustering>
<clus scale="   91.188">  2  3  1 -1</clus>
</clustering>
</event>
<event>
 3   1  0.8512900E+003  0.9118800E+02  0.7546771E-02  0.1180022E+00
       -2   -1    0    0    0  501 -0.00000000000E+00  0.00000000000E+00  0.11550615319E+02  0.11550615319E+02  0.00000000000E+00 0.  1.
        2   -1    0    0  501    0  0.00000000000E+00 -0.00000000000E+00 -0.17997420731E+03  0.17997420731E+03  0.00000000000E+00 0. -1.
       23    1    1    2    0    0  0.00000000000E+00 -0.00000000000E+00 -0.16842359199E+03  0.19152482263E+03  0.91188000000E+02 0.  1.
<scales pt_clust_3="100000.00000"></scales>
<rwgt>
<wgt id='bias'>   0.1000000E+01</wgt>
</rwgt>
<clustering>
<clus scale="   91.188">  2  3  1 -1</clus>
</clustering>
</event>
<event>
 4   2  0.8512900E+003  0.9287152E+02  0.7546771E-02  0.1176774E+00
       -5   -1    0    0    0  501 -0.00000000000E+00  0.00000000000E+00  0.16133026767E+01  0.16133026767E+01  0.00000000000E+00 0.  1.
       21   -1    0    0  501  502  0.00000000000E+00 -0.00000000000E+00 -0.19788892169E+04  0.19788892169E+04  0.00000000000E+00 0. -1.
       23    1    1    2    0    0  0.10170039469E+02 -0.14367953838E+02 -0.14769449678E+04  0.14798620061E+04  0.91188000000E+02 0.  0.
       -5    1    1    2    0  502 -0.10170039469E+02  0.14367953838E+02 -0.50033094634E+03  0.50064051341E+03  0.00000000000E+00 0.  1.
<scales pt_clust_3="100000.00000" pt_clust_4="17.60306"></scales>
<rwgt>
<wgt id='bias'>   0.1000000E+01</wgt>
</rwgt>
<clustering>
<clus scale="   17.603">  2  4  1 -1</clus>
<clus scale="   17.603">  2  3  1 -1</clus>
</clustering>
</event>
<event>
 5   3  0.8512900E+003  0.9325387E+02  0.7546771E-02  0.1176047E+00
        2   -1    0    0  503    0  0.00000000000E+00  0.00000000000E+00  0.14943878828E+02  0.14943878828E+02  0.00000000000E+00 0. -1.
       -2   -1    0    0    0  501 -0.00000000000E+00 -0.00000000000E+00 -0.45403478056E+03  0.45403478056E+03  0.00000000000E+00 0.  1.
       23    1    1    2    0    0 -0.61720884502E+01  0.39179897588E+01 -0.37617866855E+03  0.38714220557E+03  0.91188000000E+02 0.  1.
       21    1    1    2  502  501  0.17140345900E+02 -0.20255402837E+02 -0.54138417677E+02  0.60291301779E+02  0.00000000000E+00 0.  1.
       21    1    1    2  503  502 -0.10968257450E+02  0.16337413079E+02 -0.87738155006E+01  0.21545152031E+02  0.00000000000E+00 0. -1.
<scales pt_clust_3="100000.00000" pt_clust_4="19.52007" pt_clust_5="19.67775"></scales>
<rwgt>
<wgt id='bias'>   0.1000000E+01</wgt>
</rwgt>
<clustering>
<clus scale="   19.678">  1  5  2 -1</clus>
<clus scale="   19.520">  1  4  2 -1</clus>
<clus scale="   19.678">  1  3  2 -1</clus>
</clustering>
</event>
<event>
 3   1  0.8512900E+003  0.9118800E+02  0.7546771E-02  0.1180022E+00
       -1   -1    0    0    0  501 -0.00000000000E+00  0.00000000000E+00  0.32707005050E+00  0.32707005050E+00  0.00000000000E+00 0.  1.
        1   -1    0    0  501    0  0.00000000000E+00 -0.00000000000E+00 -0.63558642340E+04  0.63558642340E+04  0.00000000000E+00 0. -1.
       23    1    1    2    0    0  0.00000000000E+00 -0.00000000000E+00 -0.63555371640E+04  0.63561913041E+04  0.91188000000E+02 0.  1.
<scales pt_clust_3="100000.00000"></scales>
<rwgt>
<wgt id='bias'>   0.1000000E+01</wgt>
</rwgt>
<clustering>
<clus scale="   91.188">  2  3  1 -1</clus>
</clustering>
</event>
<event>
 3   1  0.8512900E+003  0.9118800E+02  0.7546771E-02  0.1180022E+00
        1   -1    0    0  501    0  0.00000000000E+00  0.00000000000E+00  0.99143909617E+01  0.99143909617E+01  0.00000000000E+00 0. -1.
       -1   -1    0    0    0  501 -0.00000000000E+00 -0.00000000000E+00 -0.20967630226E+03  0.20967630226E+03  0.00000000000E+00 0.  1.
       23    1    1    2    0    0  0.00000000000E+00  0.00000000000E+00 -0.19976191130E+03  0.21959069322E+03  0.91188000000E+02 0. -1.
<scales pt_clust_3="100000.00000"></scales>
<rwgt>
<wgt id='bias'>   0.1000000E+01</wgt>
</rwgt>
<clustering>
<clus scale="   91.188">  1  3  2 -1</clus>
</clustering>
</event>
<event>
 5   3  0.8512900E+003  0.1286087E+03  0.7546771E-02  0.1121902E+00
       21   -1    0    0  501  502  0.00000000000E+00  0.00000000000E+00  0.66129685554E+04  0.66129685554E+04  0.00000000000E+00 0. -1.
       -2   -1    0    0    0  501 -0.00000000000E+00 -0.00000000000E+00 -0.25890071103E+01  0.25890071103E+01  0.00000000000E+00 0.  1.
       23    1    1    2    0    0  0.89154655819E+01  0.26916596316E+02  0.14472576820E+04  0.14504047843E+04  0.91188000000E+02 0.  0.
       21    1    1    2  503  502 -0.11431818097E+02 -0.22383968557E+01  0.50116190140E+04  0.50116325523E+04  0.00000000000E+00 0. -1.
       -2    1    1    2    0  503  0.25163525154E+01 -0.24678199461E+02  0.15150285225E+03  0.15352022603E+03  0.00000000000E+00 0.  1.
<scales pt_clust_3="100000.00000" pt_clust_4="11.64890" pt_clust_5="100000.00000"></scales>
<rwgt>
<wgt id='bias'>   0.1000000E+01</wgt>
</rwgt>
<clustering>
<clus scale="   11.649">  1  4  2 -1</clus>
<clus scale="   24.932">  3  5 -1 -1</clus>
<clus scale="   11.649">  1  3  2 -1</clus>
</clustering>
</event>
<event>
 3   1  0.8512900E+003  0.9118800E+02  0.7546771E-02  0.1180022E+00
        1   -1    0    0  501    0  0.00000000000E+00  0.00000000000E+00  0.94060180696E+01  0.94060180696E+01  0.00000000000E+00 0. -1.
       -1   -1    0    0    0  501 -0.00000000000E+00 -0.00000000000E+00 -0.22100880741E+03  0.22100880741E+03  0.00000000000E+00 0.  1.
       23    1    1    2    0    0  0.00000000000E+00  0.00000000000E+00 -0.21160278934E+03  0.23041482548E+03  0.91188000000E+02 0. -1.
<scales pt_clust_3="100000.00000"></scales>
<rwgt>
<wgt id='bias'>   0.1000000E+01</wgt>
</rwgt>
<clustering>
<clus scale="   91.188">  1  3  2 -1</clus>
</clustering>
</event>
<event>
 3   1  0.8512900E+003  0.9118800E+02  0.7546771E-02  0.1180022E+00
        1   -1    0    0  501    0  0.00000000000E+00  0.00000000000E+00  0.16156256189E+03  0.16156256189E+03  0.00000000000E+00 0. -1.
       -1   -1    0    0    0  501 -0.00000000000E+00 -0.00000000000E+00 -0.12866921716E+02  0.12866921716E+02  0.00000000000E+00 0.  1.
       23    1    1    2    0    0  0.00000000000E+00  0.00000000000E+00  0.14869564017E+03  0.17442948360E+03  0.91188000000E+02 0. -1.
<scales pt_clust_3="100000.00000"></scales>
<rwgt>
<wgt id='bias'>   0.1000000E+01</wgt>
</rwgt>
<clustering>
<clus scale="   91.188">  1  3  2 -1</clus>
</clustering>
</event>
<event>
 3   1  0.8512900E+003  0.9118800E+02  0.7546771E-02  0.1180022E+00
        1   -1    0    0  501    0  0.00000000000E+00  0.00000000000E+00  0.11889783550E+04  0.11889783550E+04  0.00000000000E+00 0. -1.
       -1   -1    0    0    0  501 -0.00000000000E+00 -0.00000000000E+00 -0.17484025906E+01  0.17484025906E+01  0.00000000000E+00 0.  1.
       23    1    1    2    0    0  0.00000000000E+00  0.00000000000E+00  0.11872299524E+04  0.11907267576E+04  0.91188000000E+02 0. -1.
<scales pt_clust_3="100000.00000"></scales>
<rwgt>
<wgt id='bias'>   0.1000000E+01</wgt>
</rwgt>
<clustering>
<clus scale="   91.188">  1  3  2 -1</clus>
</clustering>
</event>
<event>
 3   1  0.8512900E+003  0.9118800E+02  0.7546771E-02  0.1180022E+00
       -3   -1    0    0    0  501 -0.00000000000E+00  0.00000000000E+00  0.27602863169E+02  0.27602863169E+02  0.00000000000E+00 0.  1.
        3   -1    0    0  501    0  0.00000000000E+00 -0.00000000000E+00 -0.75311492987E+02  0.75311492987E+02  0.00000000000E+00 0. -1.
       23    1    1    2    0    0  0.00000000000E+00 -0.00000000000E+00 -0.47708629817E+02  0.10291435616E+03  0.91188000000E+02 0.  1.
<scales pt_clust_3="100000.00000"></scales>
<rwgt>
<wgt id='bias'>   0.1000000E+01</wgt>
</rwgt>
<clustering>
<clus scale="   91.188">  2  3  1 -1</clus>
</clustering>
</event>
<event>
 3   1  0.8512900E+003  0.9118800E+02  0.7546771E-02  0.1180022E+00
        2   -1    0    0  501    0  0.00000000000E+00  0.00000000000E+00  0.91348434416E+02  0.91348434416E+02  0.00000000000E+00 0. -1.
       -2   -1    0    0    0  501 -0.00000000000E+00 -0.00000000000E+00 -0.22756961838E+02  0.22756961838E+02  0.00000000000E+00 0.  1.
       23    1    1    2    0    0  0.00000000000E+00  0.00000000000E+00  0.68591472578E+02  0.11410539625E+03  0.91188000000E+02 0. -1.
<scales pt_clust_3="100000.00000"></scales>
<rwgt>
<wgt id='bias'>   0.1000000E+01</wgt>
</rwgt>
<clustering>
<clus scale="   91.188">  1  3  2 -1</clus>
</clustering>
</event>
<event>
 4   2  0.8512900E+003  0.9281566E+02  0.7546771E-02  0.1176881E+00
        5   -1    0    0  502    0 -0.00000000000E+00  0.00000000000E+00  0.46160672638E+01  0.46160672638E+01  0.00000000000E+00 0. -1.
       21   -1    0    0  501  502  0.00000000000E+00 -0.00000000000E+00 -0.98798480613E+03  0.98798480613E+03  0.00000000000E+00 0. -1.
       23    1    1    2    0    0 -0.54037126191E+01 -0.16440663097E+02 -0.47754739359E+03  0.48648356600E+03  0.91188000000E+02 0. -1.
        5    1    1    2  501    0  0.54037126191E+01  0.16440663097E+02 -0.50582134527E+03  0.50611730739E+03  0.00000000000E+00 0. -1.
<scales pt_clust_3="100000.00000" pt_clust_4="17.30594"></scales>
<rwgt>
<wgt id='bias'>   0.1000000E+01</wgt>
</rwgt>
<clustering>
<clus scale="   17.306">  2  4  1 -1</clus>
<clus scale="   17.306">  2  3  1 -1</clus>
</clustering>
</event>
<event>
 3   1  0.8512900E+003  0.9118800E+02  0.7546771E-02  0.1180022E+00
        5   -1    0    0  501    0  0.00000000000E+00  0.00000000000E+00  0.38758538772E+02  0.38758538772E+02  0.00000000000E+00 0. -1.
       -5   -1    0    0    0  501 -0.00000000000E+00 -0.00000000000E+00 -0.53634964110E+02  0.53634964110E+02  0.00000000000E+00 0.  1.
       23    1    1    2    0    0  0.00000000000E+00  0.00000000000E+00 -0.14876425338E+02  0.92393502882E+02  0.91188000000E+02 0. -1.
<scales pt_clust_3="100000.00000"></scales>
<rwgt>
<wgt id='bias'>   0.1000000E+01</wgt>
</rwgt>
<clustering>
<clus scale="   91.188">  1  3  2 -1</clus>
</clustering>
</event>
<event>
 3   1  0.8512900E+003  0.9118800E+02  0.7546771E-02  0.1180022E+00
        2   -1    0    0  501    0  0.00000000000E+00  0.00000000000E+00  0.12252891185E+05  0.12252891185E+05  0.00000000000E+00 0. -1.
       -2   -1    0    0    0  501 -0.00000000000E+00 -0.00000000000E+00 -0.16965896494E+00  0.16965896494E+00  0.00000000000E+00 0.  1.
       23    1    1    2    0    0  0.00000000000E+00  0.00000000000E+00  0.12252721526E+05  0.12253060844E+05  0.91188000000E+02 0. -1.
<scales pt_clust_3="100000.00000"></scales>
<rwgt>
<wgt id='bias'>   0.1000000E+01</wgt>
</rwgt>
<clustering>
<clus scale="   91.188">  1  3  2 -1</clus>
</clustering>
</event>
<event>
 3   1  0.8512900E+003  0.9118800E+02  0.7546771E-02  0.1180022E+00
        1   -1    0    0  501    0  0.00000000000E+00  0.00000000000E+00  0.14755420843E+02  0.14755420843E+02  0.00000000000E+00 0. -1.
       -1   -1    0    0    0  501 -0.00000000000E+00 -0.00000000000E+00 -0.14088468625E+03  0.14088468625E+03  0.00000000000E+00 0.  1.
       23    1    1    2    0    0  0.00000000000E+00  0.00000000000E+00 -0.12612926541E+03  0.15564010710E+03  0.91188000000E+02 0. -1.
<scales pt_clust_3="100000.00000"></scales>
<rwgt>
<wgt id='bias'>   0.1000000E+01</wgt>
</rwgt>
<clustering>
<clus scale="   91.188">  1  3  2 -1</clus>
</clustering>
</event>
<event>
 3   1  0.8512900E+003  0.9118800E+02  0.7546771E-02  0.1180022E+00
       -2   -1    0    0    0  501 -0.00000000000E+00  0.00000000000E+00  0.34350308845E+01  0.34350308845E+01  0.00000000000E+00 0.  1.
        2   -1    0    0  501    0  0.00000000000E+00 -0.00000000000E+00 -0.60518024610E+03  0.60518024610E+03  0.00000000000E+00 0. -1.
       23    1    1    2    0    0  0.00000000000E+00 -0.00000000000E+00 -0.60174521521E+03  0.60861527698E+03  0.91188000000E+02 0.  1.
<scales pt_clust_3="100000.00000"></scales>
<rwgt>
<wgt id='bias'>   0.1000000E+01</wgt>
</rwgt>
<clustering>
<clus scale="   91.188">  2  3  1 -1</clus>
</clustering>
</event>
<event>
 3   1  0.8512900E+003  0.9118800E+02  0.7546771E-02  0.1180022E+00
       -2   -1    0    0    0  501 -0.00000000000E+00  0.00000000000E+00  0.41854448480E+01  0.41854448480E+01  0.00000000000E+00 0.  1.
        2   -1    0    0  501    0  0.00000000000E+00 -0.00000000000E+00 -0.49667667631E+03  0.49667667631E+03  0.00000000000E+00 0. -1.
       23    1    1    2    0    0  0.00000000000E+00 -0.00000000000E+00 -0.49249123146E+03  0.50086212116E+03  0.91188000000E+02 0.  1.
<scales pt_clust_3="100000.00000"></scales>
<rwgt>
<wgt id='bias'>   0.1000000E+01</wgt>
</rwgt>
<clustering>
<clus scale="   91.188">  2  3  1 -1</clus>
</clustering>
</event>
<event>
 4   2  0.8512900E+003  0.1354742E+03  0.7546771E-02  0.1113617E+00
       -3   -1    0    0    0  501 -0.00000000000E+00  0.00000000000E+00  0.59265352323E+02  0.59265352323E+02  0.00000000000E+00 0.  1.
        3   -1    0    0  502    0  0.00000000000E+00 -0.00000000000E+00 -0.26319979764E+03  0.26319979764E+03  0.00000000000E+00 0. -1.
       23    1    1    2    0    0  0.54825144231E+02  0.83858272299E+02 -0.16847010894E+03  0.21618379964E+03  0.91188000000E+02 0. -1.
       21    1    1    2  502  501 -0.54825144231E+02 -0.83858272299E+02 -0.35464336371E+02  0.10628135033E+03  0.00000000000E+00 0.  1.
<scales pt_clust_3="100000.00000" pt_clust_4="100.18985"></scales>
<rwgt>
<wgt id='bias'>   0.1000000E+01</wgt>
</rwgt>
<clustering>
<clus scale="  100.190">  1  4  2 -1</clus>
<clus scale="  135.474">  2  3  1 -1</clus>
</clustering>
</event>
<event>
 3   1  0.8512900E+003  0.9118800E+02  0.7546771E-02  0.1180022E+00
        1   -1    0    0  501    0  0.00000000000E+00  0.00000000000E+00  0.34872988367E+03  0.34872988367E+03  0.00000000000E+00 0. -1.
       -1   -1    0    0    0  501 -0.00000000000E+00 -0.00000000000E+00 -0.59610974951E+01  0.59610974951E+01  0.00000000000E+00 0.  1.
       23    1    1    2    0    0  0.00000000000E+00  0.00000000000E+00  0.34276878617E+03  0.35469098116E+03  0.91188000000E+02 0. -1.
<scales pt_clust_3="100000.00000"></scales>
<rwgt>
<wgt id='bias'>   0.1000000E+01</wgt>
</rwgt>
<clustering>
<clus scale="   91.188">  1  3  2 -1</clus>
</clustering>
</event>
<event>
 3   1  0.8512900E+003  0.9118800E+02  0.7546771E-02  0.1180022E+00
        2   -1    0    0  501    0  0.00000000000E+00  0.00000000000E+00  0.48764887398E+01  0.48764887398E+01  0.00000000000E+00 0. -1.
       -2   -1    0    0    0  501 -0.00000000000E+00 -0.00000000000E+00 -0.42629296342E+03  0.42629296342E+03  0.00000000000E+00 0.  1.
       23    1    1    2    0    0  0.00000000000E+00  0.00000000000E+00 -0.42141647468E+03  0.43116945216E+03  0.91188000000E+02 0. -1.
<scales pt_clust_3="100000.00000"></scales>
<rwgt>
<wgt id='bias'>   0.1000000E+01</wgt>
</rwgt>
<clustering>
<clus scale="   91.188">  1  3  2 -1</clus>
</clustering>
</event>
<event>
 5   3  0.8512900E+003  0.1494981E+03  0.7546771E-02  0.1098265E+00
       21   -1    0    0  501  502  0.00000000000E+00  0.00000000000E+00  0.47002978401E+01  0.47002978401E+01  0.00000000000E+00 0.  1.
        2   -1    0    0  503    0 -0.00000000000E+00 -0.00000000000E+00 -0.23199342719E+04  0.23199342719E+04  0.00000000000E+00 0. -1.
       23    1    1    2    0    0  0.49759683271E+02  0.35507715149E+00 -0.14377564180E+04  0.14415043950E+04  0.91188000000E+02 0.  0.
       21    1    1    2  503  502 -0.69636846929E+01  0.79247806905E+01 -0.99290018549E+01  0.14487240294E+02  0.00000000000E+00 0.  1.
        2    1    1    2  501    0 -0.42795998578E+02 -0.82798578420E+01 -0.86754855421E+03  0.86864293438E+03  0.00000000000E+00 0. -1.
<scales pt_clust_3="100000.00000" pt_clust_4="10.54965" pt_clust_5="100000.00000"></scales>
<rwgt>
<wgt id='bias'>   0.1000000E+01</wgt>
</rwgt>
<clustering>
<clus scale="   10.550">  1  4  2 -1</clus>
<clus scale="   44.842">  3  5 -1 -1</clus>
<clus scale="   10.550">  1  3  2 -1</clus>
</clustering>
</event>
<event>
 4   2  0.8512900E+003  0.1025701E+03  0.7546771E-02  0.1159462E+00
        2   -1    0    0  502    0 -0.00000000000E+00  0.00000000000E+00  0.10210491526E+04  0.10210491526E+04  0.00000000000E+00 0. -1.
       21   -1    0    0  501  502  0.00000000000E+00 -0.00000000000E+00 -0.69491689132E+01  0.69491689132E+01  0.00000000000E+00 0. -1.
       23    1    1    2    0    0  0.45296075763E+01  0.46742501543E+02  0.43211083731E+03  0.44411755860E+03  0.91188000000E+02 0. -1.
        2    1    1    2  501    0 -0.45296075763E+01 -0.46742501543E+02  0.58198914635E+03  0.58388076288E+03  0.00000000000E+00 0. -1.
<scales pt_clust_3="100000.00000" pt_clust_4="46.96148"></scales>
<rwgt>
<wgt id='bias'>   0.1000000E+01</wgt>
</rwgt>
<clustering>
<clus scale="   46.961">  2  4  1 -1</clus>
<clus scale="   46.961">  2  3  1 -1</clus>
</clustering>
</event>
<event>
 4   2  0.8512900E+003  0.9228982E+02  0.7546771E-02  0.1177888E+00
       21   -1    0    0  501  502  0.00000000000E+00  0.00000000000E+00  0.59948738236E+03  0.59948738236E+03  0.00000000000E+00 0.  1.
       -1   -1    0    0    0  501 -0.00000000000E+00 -0.00000000000E+00 -0.54873844777E+01  0.54873844777E+01  0.00000000000E+00 0.  1.
       23    1    1    2    0    0 -0.14008929766E+02 -0.24308182444E+01  0.40238658416E+03  0.41283455941E+03  0.91188000000E+02 0.  1.
       -1    1    1    2    0  502  0.14008929766E+02  0.24308182444E+01  0.19161341373E+03  0.19214020743E+03  0.00000000000E+00 0.  1.
<scales pt_clust_3="100000.00000" pt_clust_4="14.21826"></scales>
<rwgt>
<wgt id='bias'>   0.1000000E+01</wgt>
</rwgt>
<clustering>
<clus scale="   14.218">  1  4  2 -1</clus>
<clus scale="   14.218">  1  3  2 -1</clus>
</clustering>
</event>
<event>
 4   2  0.8512900E+003  0.9541406E+02  0.7546771E-02  0.1172014E+00
        2   -1    0    0  502    0 -0.00000000000E+00  0.00000000000E+00  0.14629932315E+03  0.14629932315E+03  0.00000000000E+00 0. -1.
       21   -1    0    0  501  502  0.00000000000E+00 -0.00000000000E+00 -0.27955749380E+02  0.27955749380E+02  0.00000000000E+00 0.  1.
       23    1    1    2    0    0  0.21835953377E+02  0.17657386637E+02  0.69965844703E+02  0.11831763576E+03  0.91188000000E+02 0.  1.
        2    1    1    2  501    0 -0.21835953377E+02 -0.17657386637E+02  0.48377729069E+02  0.55937436771E+02  0.00000000000E+00 0. -1.
<scales pt_clust_3="100000.00000" pt_clust_4="28.08190"></scales>
<rwgt>
<wgt id='bias'>   0.1000000E+01</wgt>
</rwgt>
<clustering>
<clus scale="   28.082">  2  4  1 -1</clus>
<clus scale="   28.082">  2  3  1 -1</clus>
</clustering>
</event>
<event>
 3   1  0.8512900E+003  0.9118800E+02  0.7546771E-02  0.1180022E+00
        3   -1    0    0  501    0  0.00000000000E+00  0.00000000000E+00  0.30198988662E+01  0.30198988662E+01  0.00000000000E+00 0. -1.
       -3   -1    0    0    0  501 -0.00000000000E+00 -0.00000000000E+00 -0.68837167339E+03  0.68837167339E+03  0.00000000000E+00 0.  1.
       23    1    1    2    0    0  0.00000000000E+00  0.00000000000E+00 -0.68535177453E+03  0.69139157226E+03  0.91188000000E+02 0. -1.
<scales pt_clust_3="100000.00000"></scales>
<rwgt>
<wgt id='bias'>   0.1000000E+01</wgt>
</rwgt>
<clustering>
<clus scale="   91.188">  1  3  2 -1</clus>
</clustering>
</event>
<event>
 5   3  0.8512900E+003  0.2249592E+03  0.7546771E-02  0.1038899E+00
       21   -1    0    0  503  502  0.00000000000E+00  0.00000000000E+00  0.35850779516E+03  0.35850779516E+03  0.00000000000E+00 0.  1.
       -5   -1    0    0    0  501 -0.00000000000E+00 -0.00000000000E+00 -0.62596913760E+03  0.62596913760E+03  0.00000000000E+00 0.  1.
       23    1    1    2    0    0 -0.23377763379E+02  0.64684421838E+02 -0.17630167585E+03  0.21006695718E+03  0.91188000000E+02 0.  0.
       21    1    1    2  503  501  0.85536757781E+01  0.98003448912E+01  0.33816738662E+03  0.33841748404E+03  0.00000000000E+00 0.  1.
       -5    1    1    2    0  502  0.14824087600E+02 -0.74484766729E+02 -0.42932705322E+03  0.43599249153E+03  0.00000000000E+00 0.  1.
<scales pt_clust_3="100000.00000" pt_clust_4="13.00816" pt_clust_5="100000.00000"></scales>
<rwgt>
<wgt id='bias'>   0.1000000E+01</wgt>
</rwgt>
<clustering>
<clus scale="   13.008">  1  4  2 -1</clus>
<clus scale="   74.656">  3  5 -1 -1</clus>
<clus scale="   13.008">  1  3  2 -1</clus>
</clustering>
</event>
<event>
 5   3  0.8512900E+003  0.9782408E+02  0.7546771E-02  0.1167653E+00
       21   -1    0    0  503  502  0.00000000000E+00  0.00000000000E+00  0.20168256613E+03  0.20168256613E+03  0.00000000000E+00 0.  1.
       -2   -1    0    0    0  501 -0.00000000000E+00 -0.00000000000E+00 -0.19017250122E+03  0.19017250122E+03  0.00000000000E+00 0.  1.
       23    1    1    2    0    0 -0.27171459574E+02  0.20451807437E+02 -0.17046717261E+03  0.19629282443E+03  0.91188000000E+02 0.  1.
       21    1    1    2  503  501 -0.95333704648E+00  0.18908139140E+02  0.86280283941E+02  0.88332972181E+02  0.00000000000E+00 0.  1.
       -2    1    1    2    0  502  0.28124796620E+02 -0.39359946578E+02  0.95696953575E+02  0.10722927074E+03  0.00000000000E+00 0.  1.
<scales pt_clust_3="100000.00000" pt_clust_4="18.93216" pt_clust_5="35.41608"></scales>
<rwgt>
<wgt id='bias'>   0.1000000E+01</wgt>
</rwgt>
<clustering>
<clus scale="   18.932">  1  4  2 -1</clus>
<clus scale="   35.416">  1  5  2 -1</clus>
<clus scale="   18.932">  1  3  2 -1</clus>
</clustering>
</event>
<event>
 5   3  0.8512900E+003  0.4534464E+02  0.7546771E-02  0.1160690E+00
       21   -1    0    0  503  502  0.00000000000E+00  0.00000000000E+00  0.44971330475E+03  0.44971330475E+03  0.00000000000E+00 0. -1.
       21   -1    0    0  501  503 -0.00000000000E+00 -0.00000000000E+00 -0.15059541110E+02  0.15059541110E+02  0.00000000000E+00 0.  1.
       23    1    1    2    0    0  0.38034399227E+02  0.51935793518E+01  0.23451288590E+03  0.25452923956E+03  0.91188000000E+02 0.  1.
        1    1    1    2  501    0 -0.49573718127E+02  0.17298515990E+01  0.13750765518E+03  0.14618105606E+03  0.00000000000E+00 0. -1.
       -1    1    1    2    0  502  0.11539318899E+02 -0.69234309508E+01  0.62633222551E+02  0.64062550246E+02  0.00000000000E+00 0.  1.
<scales pt_clust_3="100000.00000" pt_clust_4="45.34464" pt_clust_5="13.45696"></scales>
<rwgt>
<wgt id='bias'>   0.1000000E+01</wgt>
</rwgt>
<clustering>
<clus scale="   13.457">  1  5  2 -1</clus>
<clus scale="   45.345">  2  4  1 -1</clus>
<clus scale="   13.457">  1  3  2 -1</clus>
</clustering>
</event>
<event>
 4   2  0.8512900E+003  0.9682428E+02  0.7546771E-02  0.1169444E+00
       -2   -1    0    0    0  501 -0.00000000000E+00  0.00000000000E+00  0.36108597857E+00  0.36108597857E+00  0.00000000000E+00 0.  1.
        2   -1    0    0  502    0  0.00000000000E+00 -0.00000000000E+00 -0.11791045979E+05  0.11791045979E+05  0.00000000000E+00 0. -1.
       23    1    1    2    0    0 -0.20449661466E+02 -0.25327877331E+02 -0.94455463057E+04  0.94460425552E+04  0.91188000000E+02 0. -1.
       21    1    1    2  502  501  0.20449661466E+02  0.25327877331E+02 -0.23451385871E+04  0.23453645096E+04  0.00000000000E+00 0. -1.
<scales pt_clust_3="100000.00000" pt_clust_4="32.55288"></scales>
<rwgt>
<wgt id='bias'>   0.1000000E+01</wgt>
</rwgt>
<clustering>
<clus scale="   32.553">  1  4  2 -1</clus>
<clus scale="   96.824">  2  3  1 -1</clus>
</clustering>
</event>
<event>
 3   1  0.8512900E+003  0.9118800E+02  0.7546771E-02  0.1180022E+00
        2   -1    0    0  501    0  0.00000000000E+00  0.00000000000E+00  0.16613139438E+05  0.16613139438E+05  0.00000000000E+00 0. -1.
       -2   -1    0    0    0  501 -0.00000000000E+00 -0.00000000000E+00 -0.12513064396E+00  0.12513064396E+00  0.00000000000E+00 0.  1.
       23    1    1    2    0    0  0.00000000000E+00  0.00000000000E+00  0.16613014307E+05  0.16613264569E+05  0.91188000000E+02 0. -1.
<scales pt_clust_3="100000.00000"></scales>
<rwgt>
<wgt id='bias'>   0.1000000E+01</wgt>
</rwgt>
<clustering>
<clus scale="   91.188">  1  3  2 -1</clus>
</clustering>
</event>
<event>
 5   3  0.8512900E+003  0.1412156E+03  0.7546771E-02  0.1107095E+00
        2   -1    0    0  503    0  0.00000000000E+00  0.00000000000E+00  0.35617016367E+04  0.35617016367E+04  0.00000000000E+00 0. -1.
       -2   -1    0    0    0  501 -0.00000000000E+00 -0.00000000000E+00 -0.39909252231E+02  0.39909252231E+02  0.00000000000E+00 0.  1.
       23    1    1    2    0    0  0.90046128848E+02  0.59315129447E+02  0.34774902397E+04  0.34803563336E+04  0.91188000000E+02 0. -1.
       21    1    1    2  502  501 -0.79045546040E+02 -0.50997995769E+02  0.24647866070E+02  0.97244594826E+02  0.00000000000E+00 0.  1.
       21    1    1    2  503  502 -0.11000582809E+02 -0.83171336781E+01  0.19654278682E+02  0.24009960543E+02  0.00000000000E+00 0.  1.
<scales pt_clust_3="100000.00000" pt_clust_4="112.87155" pt_clust_5="12.77607"></scales>
<rwgt>
<wgt id='bias'>   0.1000000E+01</wgt>
</rwgt>
<clustering>
<clus scale="   12.776">  4  5 -1 -1</clus>
<clus scale="  112.872">  2  4  1 -1</clus>
<clus scale="  141.216">  1  3  2 -1</clus>
</clustering>
</event>
<event>
 3   1  0.8512900E+003  0.9118800E+02  0.7546771E-02  0.1180022E+00
       -5   -1    0    0    0  501 -0.00000000000E+00  0.00000000000E+00  0.32402274826E+01  0.32402274826E+01  0.00000000000E+00 0.  1.
        5   -1    0    0  501    0  0.00000000000E+00 -0.00000000000E+00 -0.64156385537E+03  0.64156385537E+03  0.00000000000E+00 0. -1.
       23    1    1    2    0    0  0.00000000000E+00 -0.00000000000E+00 -0.63832362789E+03  0.64480408286E+03  0.91188000000E+02 0.  1.
<scales pt_clust_3="100000.00000"></scales>
<rwgt>
<wgt id='bias'>   0.1000000E+01</wgt>
</rwgt>
<clustering>
<clus scale="   91.188">  2  3  1 -1</clus>
</clustering>
</event>
<event>
 5   3  0.8512900E+003  0.1208050E+03  0.7546771E-02  0.1132046E+00
       21   -1    0    0  503  502  0.00000000000E+00  0.00000000000E+00  0.29966738137E+03  0.29966738137E+03  0.00000000000E+00 0.  1.
       -4   -1    0    0    0  501 -0.00000000000E+00 -0.00000000000E+00 -0.14432943590E+04  0.14432943590E+04  0.00000000000E+00 0.  1.
       23    1    1    2    0    0 -0.24349578671E+01 -0.17959238308E+02 -0.11047710069E+04  0.11086760989E+04  0.91188000000E+02 0.  1.
       21    1    1    2  503  501 -0.21972554811E+02  0.45857758306E+01  0.29671487072E+03  0.29756266064E+03  0.00000000000E+00 0.  1.
       -4    1    1    2    0  502  0.24407512678E+02  0.13373462478E+02 -0.33557084147E+03  0.33672298083E+03  0.00000000000E+00 0.  1.
<scales pt_clust_3="100000.00000" pt_clust_4="22.44599" pt_clust_5="100000.00000"></scales>
<rwgt>
<wgt id='bias'>   0.1000000E+01</wgt>
</rwgt>
<clustering>
<clus scale="   22.446">  1  4  2 -1</clus>
<clus scale="   24.173">  3  5 -1 -1</clus>
<clus scale="   22.446">  1  3  2 -1</clus>
</clustering>
</event>
<event>
 4   2  0.8512900E+003  0.9204297E+02  0.7546771E-02  0.1178363E+00
       21   -1    0    0  501  502  0.00000000000E+00  0.00000000000E+00  0.18303849882E+02  0.18303849882E+02  0.00000000000E+00 0.  1.
       -2   -1    0    0    0  501 -0.00000000000E+00 -0.00000000000E+00 -0.27255529095E+03  0.27255529095E+03  0.00000000000E+00 0.  1.
       23    1    1    2    0    0 -0.10545259323E+02 -0.67419485978E+01 -0.26091890828E+03  0.27667776276E+03  0.91188000000E+02 0.  1.
       -2    1    1    2    0  502  0.10545259323E+02  0.67419485978E+01  0.66674672087E+01  0.14181378073E+02  0.00000000000E+00 0.  1.
<scales pt_clust_3="100000.00000" pt_clust_4="12.51624"></scales>
<rwgt>
<wgt id='bias'>   0.1000000E+01</wgt>
</rwgt>
<clustering>
<clus scale="   12.516">  1  4  2 -1</clus>
<clus scale="   12.516">  1  3  2 -1</clus>
</clustering>
</event>
<event>
 5   3  0.8512900E+003  0.2764412E+02  0.7546771E-02  0.1172249E+00
        1   -1    0    0  503    0 -0.00000000000E+00  0.00000000000E+00  0.31780504055E+02  0.31780504055E+02  0.00000000000E+00 0. -1.
       21   -1    0    0  501  502  0.00000000000E+00 -0.00000000000E+00 -0.25549314001E+03  0.25549314001E+03  0.00000000000E+00 0.  1.
       23    1    1    2    0    0 -0.10966174522E+02  0.33945384401E+02 -0.20645846459E+03  0.22850141149E+03  0.91188000000E+02 0.  1.
       21    1    1    2  503  502 -0.63576517871E+01 -0.26743319229E+02  0.67508296631E+01  0.28305451079E+02  0.00000000000E+00 0. -1.
        1    1    1    2  501    0  0.17323826309E+02 -0.72020651721E+01 -0.24005001025E+02  0.30466781500E+02  0.00000000000E+00 0. -1.
<scales pt_clust_3="100000.00000" pt_clust_4="27.64412" pt_clust_5="18.76126"></scales>
<rwgt>
<wgt id='bias'>   0.1000000E+01</wgt>
</rwgt>
<clustering>
<clus scale="   18.761">  2  5  1 -1</clus>
<clus scale="   27.644">  1  4  2 -1</clus>
<clus scale="   18.761">  2  3  1 -1</clus>
</clustering>
</event>
<event>
 3   1  0.8512900E+003  0.9118800E+02  0.7546771E-02  0.1180022E+00
        2   -1    0    0  501    0  0.00000000000E+00  0.00000000000E+00  0.34807355895E+04  0.34807355895E+04  0.00000000000E+00 0. -1.
       -2   -1    0    0    0  501 -0.00000000000E+00 -0.00000000000E+00 -0.59723376928E+00  0.59723376928E+00  0.00000000000E+00 0.  1.
       23    1    1    2    0    0  0.00000000000E+00  0.00000000000E+00  0.34801383557E+04  0.34813328233E+04  0.91188000000E+02 0. -1.
<scales pt_clust_3="100000.00000"></scales>
<rwgt>
<wgt id='bias'>   0.1000000E+01</wgt>
</rwgt>
<clustering>
<clus scale="   91.188">  1  3  2 -1</clus>
</clustering>
</event>
<event>
 5   3  0.8512900E+003  0.2207320E+03  0.7546771E-02  0.1041511E+00
       21   -1    0    0  501  502  0.00000000000E+00  0.00000000000E+00  0.14995358729E+03  0.14995358729E+03  0.00000000000E+00 0. -1.
        2   -1    0    0  503    0 -0.00000000000E+00 -0.00000000000E+00 -0.12070410668E+04  0.12070410668E+04  0.00000000000E+00 0. -1.
       23    1    1    2    0    0 -0.66152076484E+02  0.10314598445E+03 -0.94190999393E+03  0.95421427329E+03  0.91188000000E+02 0. -1.
       21    1    1    2  503  502  0.13144684301E+02 -0.13489778287E+03  0.10667671009E+03  0.17248221654E+03  0.00000000000E+00 0. -1.
        2    1    1    2  501    0  0.53007392183E+02  0.31751798413E+02 -0.22185419562E+03  0.23029816422E+03  0.00000000000E+00 0. -1.
<scales pt_clust_3="100000.00000" pt_clust_4="135.53669" pt_clust_5="100000.00000"></scales>
<rwgt>
<wgt id='bias'>   0.1000000E+01</wgt>
</rwgt>
<clustering>
<clus scale="   61.790">  3  5 -1 -1</clus>
<clus scale="  135.537">  1  4  2 -1</clus>
<clus scale="  135.537">  1  3  2 -1</clus>
</clustering>
</event>
<event>
 4   2  0.8512900E+003  0.9298062E+02  0.7546771E-02  0.1176566E+00
        1   -1    0    0  502    0  0.00000000000E+00  0.00000000000E+00  0.27547651675E+03  0.27547651675E+03  0.00000000000E+00 0. -1.
       -1   -1    0    0    0  501 -0.00000000000E+00 -0.00000000000E+00 -0.12779227447E+02  0.12779227447E+02  0.00000000000E+00 0.  1.
       23    1    1    2    0    0 -0.17154192195E+02 -0.59898512596E+01  0.24809224502E+03  0.26494368838E+03  0.91188000000E+02 0.  1.
       21    1    1    2  502  501  0.17154192195E+02  0.59898512596E+01  0.14605044281E+02  0.23312055817E+02  0.00000000000E+00 0. -1.
<scales pt_clust_3="100000.00000" pt_clust_4="18.16988"></scales>
<rwgt>
<wgt id='bias'>   0.1000000E+01</wgt>
</rwgt>
<clustering>
<clus scale="   18.170">  2  4  1 -1</clus>
<clus scale="   92.981">  1  3  2 -1</clus>
</clustering>
</event>
<event>
 5   3  0.8512900E+003  0.9578206E+02  0.7546771E-02  0.1171338E+00
        1   -1    0    0  501    0  0.00000000000E+00  0.00000000000E+00  0.13934727231E+05  0.13934727231E+05  0.00000000000E+00 0. -1.
       -5   -1    0    0    0  501 -0.00000000000E+00 -0.00000000000E+00 -0.37300005213E+00  0.37300005213E+00  0.00000000000E+00 0.  1.
       23    1    1    2    0    0  0.34662707280E+01  0.25491980423E+02  0.10907376437E+05  0.10907787945E+05  0.91188000000E+02 0. -1.
        1    1    1    2  502    0  0.13519465372E+02 -0.45322698491E+00  0.12907442920E+04  0.12908151722E+04  0.00000000000E+00 0. -1.
       -5    1    1    2    0  502 -0.16985736100E+02 -0.25038753438E+02  0.17362335016E+04  0.17364971139E+04  0.00000000000E+00 0.  1.
<scales pt_clust_3="100000.00000" pt_clust_4="13.52707" pt_clust_5="29.30788"></scales>
<rwgt>
<wgt id='bias'>   0.1000000E+01</wgt>
</rwgt>
<clustering>
<clus scale="   13.527">  1  4  2 -1</clus>
<clus scale="   29.308">  1  5  2 -1</clus>
<clus scale="   13.527">  1  3  2 -1</clus>
</clustering>
</event>
<event>
 3   1  0.8512900E+003  0.9118800E+02  0.7546771E-02  0.1180022E+00
        4   -1    0    0  501    0  0.00000000000E+00  0.00000000000E+00  0.83590789569E+01  0.83590789569E+01  0.00000000000E+00 0. -1.
       -4   -1    0    0    0  501 -0.00000000000E+00 -0.00000000000E+00 -0.24868922123E+03  0.24868922123E+03  0.00000000000E+00 0.  1.
       23    1    1    2    0    0  0.00000000000E+00  0.00000000000E+00 -0.24033014228E+03  0.25704830019E+03  0.91188000000E+02 0. -1.
<scales pt_clust_3="100000.00000"></scales>
<rwgt>
<wgt id='bias'>   0.1000000E+01</wgt>
</rwgt>
<clustering>
<clus scale="   91.188">  1  3  2 -1</clus>
</clustering>
</event>
<event>
 3   1  0.8512900E+003  0.9118800E+02  0.7546771E-02  0.1180022E+00
        4   -1    0    0  501    0  0.00000000000E+00  0.00000000000E+00  0.32709384323E+03  0.32709384323E+03  0.00000000000E+00 0. -1.
       -4   -1    0    0    0  501 -0.00000000000E+00 -0.00000000000E+00 -0.63554019101E+01  0.63554019101E+01  0.00000000000E+00 0.  1.
       23    1    1    2    0    0  0.00000000000E+00  0.00000000000E+00  0.32073844132E+03  0.33344924514E+03  0.91188000000E+02 0. -1.
<scales pt_clust_3="100000.00000"></scales>
<rwgt>
<wgt id='bias'>   0.1000000E+01</wgt>
</rwgt>
<clustering>
<clus scale="   91.188">  1  3  2 -1</clus>
</clustering>
</event>
<event>
 4   2  0.8512900E+003  0.9219169E+02  0.7546771E-02  0.1178076E+00
        2   -1    0    0  502    0  0.00000000000E+00  0.00000000000E+00  0.51977949741E+01  0.51977949741E+01  0.00000000000E+00 0. -1.
       -2   -1    0    0    0  501 -0.00000000000E+00 -0.00000000000E+00 -0.55456910965E+03  0.55456910965E+03  0.00000000000E+00 0.  1.
       23    1    1    2    0    0  0.80786908267E+01  0.10899146469E+02 -0.50576930858E+03  0.51410300668E+03  0.91188000000E+02 0.  0.
       21    1    1    2  502  501 -0.80786908267E+01 -0.10899146469E+02 -0.43602006100E+02  0.45663897941E+02  0.00000000000E+00 0.  1.
<scales pt_clust_3="100000.00000" pt_clust_4="13.56675"></scales>
<rwgt>
<wgt id='bias'>   0.1000000E+01</wgt>
</rwgt>
<clustering>
<clus scale="   13.567">  1  4  2 -1</clus>
<clus scale="   13.567">  1  3  2 -1</clus>
</clustering>
</event>
<event>
 5   3  0.8512900E+003  0.9536410E+02  0.7546771E-02  0.1172105E+00
        2   -1    0    0  503    0  0.00000000000E+00  0.00000000000E+00  0.39385012521E+04  0.39385012521E+04  0.00000000000E+00 0. -1.
       -2   -1    0    0    0  501 -0.00000000000E+00 -0.00000000000E+00 -0.12946727348E+01  0.12946727348E+01  0.00000000000E+00 0.  1.
       23    1    1    2    0    0 -0.11567537286E+02  0.28514805333E+02  0.21786078389E+04  0.21807325075E+04  0.91188000000E+02 0.  0.
       21    1    1    2  502  501  0.19246301576E+02 -0.18978225887E+02  0.13860762359E+04  0.13863397581E+04  0.00000000000E+00 0. -1.
       21    1    1    2  503  502 -0.76787642898E+01 -0.95365794465E+01  0.37252250455E+03  0.37272365925E+03  0.00000000000E+00 0. -1.
<scales pt_clust_3="100000.00000" pt_clust_4="27.91164" pt_clust_5="12.24376"></scales>
<rwgt>
<wgt id='bias'>   0.1000000E+01</wgt>
</rwgt>
<clustering>
<clus scale="   12.244">  1  5  2 -1</clus>
<clus scale="   27.912">  1  4  2 -1</clus>
<clus scale="   12.244">  1  3  2 -1</clus>
</clustering>
</event>
<event>
 3   1  0.8512900E+003  0.9118800E+02  0.7546771E-02  0.1180022E+00
        3   -1    0    0  501    0  0.00000000000E+00  0.00000000000E+00  0.66113323468E+02  0.66113323468E+02  0.00000000000E+00 0. -1.
       -3   -1    0    0    0  501 -0.00000000000E+00 -0.00000000000E+00 -0.31443175550E+02  0.31443175550E+02  0.00000000000E+00 0.  1.
       23    1    1    2    0    0  0.00000000000E+00  0.00000000000E+00  0.34670147918E+02  0.97556499018E+02  0.91188000000E+02 0. -1.
<scales pt_clust_3="100000.00000"></scales>
<rwgt>
<wgt id='bias'>   0.1000000E+01</wgt>
</rwgt>
<clustering>
<clus scale="   91.188">  1  3  2 -1</clus>
</clustering>
</event>
<event>
 5   3  0.8512900E+003  0.1230062E+03  0.7546771E-02  0.1129100E+00
        1   -1    0    0  503    0 -0.00000000000E+00  0.00000000000E+00  0.12496312455E+04  0.12496312455E+04  0.00000000000E+00 0. -1.
       21   -1    0    0  501  502  0.00000000000E+00 -0.00000000000E+00 -0.71814720003E+01  0.71814720003E+01  0.00000000000E+00 0.  1.
       23    1    1    2    0    0 -0.16543116935E+02 -0.45519618059E+02  0.99106199819E+03  0.99642603636E+03  0.91188000000E+02 0.  0.
       21    1    1    2  503  502  0.18368533750E+02  0.54161890415E+02  0.23395236878E+03  0.24084149198E+03  0.00000000000E+00 0.  1.
        1    1    1    2  501    0 -0.18254168145E+01 -0.86422723562E+01  0.17435406556E+02  0.19545189173E+02  0.00000000000E+00 0. -1.
<scales pt_clust_3="100000.00000" pt_clust_4="57.19190" pt_clust_5="100000.00000"></scales>
<rwgt>
<wgt id='bias'>   0.1000000E+01</wgt>
</rwgt>
<clustering>
<clus scale="    8.833">  3  5 -1 -1</clus>
<clus scale="   57.192">  2  4  1 -1</clus>
<clus scale="   57.192">  2  3  1 -1</clus>
</clustering>
</event>
<event>
 3   1  0.8512900E+003  0.9118800E+02  0.7546771E-02  0.1180022E+00
       -5   -1    0    0    0  501 -0.00000000000E+00  0.00000000000E+00  0.17894608620E+02  0.17894608620E+02  0.00000000000E+00 0.  1.
        5   -1    0    0  501    0  0.00000000000E+00 -0.00000000000E+00 -0.11616978500E+03  0.11616978500E+03  0.00000000000E+00 0. -1.
       23    1    1    2    0    0  0.00000000000E+00 -0.00000000000E+00 -0.98275176380E+02  0.13406439362E+03  0.91188000000E+02 0.  1.
<scales pt_clust_3="100000.00000"></scales>
<rwgt>
<wgt id='bias'>   0.1000000E+01</wgt>
</rwgt>
<clustering>
<clus scale="   91.188">  2  3  1 -1</clus>
</clustering>
</event>
<event>
 3   1  0.8512900E+003  0.9118800E+02  0.7546771E-02  0.1180022E+00
       -3   -1    0    0    0  501 -0.00000000000E+00  0.00000000000E+00  0.16145411196E+04  0.16145411196E+04  0.00000000000E+00 0.  1.
        3   -1    0    0  501    0  0.00000000000E+00 -0.00000000000E+00 -0.12875564523E+01  0.12875564523E+01  0.00000000000E+00 0. -1.
       23    1    1    2    0    0  0.00000000000E+00 -0.00000000000E+00  0.16132535631E+04  0.16158286760E+04  0.91188000000E+02 0.  1.
<scales pt_clust_3="100000.00000"></scales>
<rwgt>
<wgt id='bias'>   0.1000000E+01</wgt>
</rwgt>
<clustering>
<clus scale="   91.188">  2  3  1 -1</clus>
</clustering>
</event>
<event>
 4   2  0.8512900E+003  0.9222921E+02  0.7546771E-02  0.1178004E+00
       21   -1    0    0  501  502  0.00000000000E+00  0.00000000000E+00  0.20768476156E+03  0.20768476156E+03  0.00000000000E+00 0. -1.
       -1   -1    0    0    0  501 -0.00000000000E+00 -0.00000000000E+00 -0.19890322247E+02  0.19890322247E+02  0.00000000000E+00 0.  1.
       23    1    1    2    0    0  0.10067420504E+02 -0.94669493303E+01  0.90192537473E+02  0.12899969475E+03  0.91188000000E+02 0.  1.
       -1    1    1    2    0  502 -0.10067420504E+02  0.94669493303E+01  0.97601901841E+02  0.98575389060E+02  0.00000000000E+00 0.  1.
<scales pt_clust_3="100000.00000" pt_clust_4="13.81941"></scales>
<rwgt>
<wgt id='bias'>   0.1000000E+01</wgt>
</rwgt>
<clustering>
<clus scale="   13.819">  1  4  2 -1</clus>
<clus scale="   13.819">  1  3  2 -1</clus>
</clustering>
</event>
<event>
 5   3  0.8512900E+003  0.1559974E+03  0.7546771E-02  0.1091761E+00
       21   -1    0    0  501  502  0.00000000000E+00  0.00000000000E+00  0.13159367876E+01  0.13159367876E+01  0.00000000000E+00 0.  1.
        2   -1    0    0  503    0 -0.00000000000E+00 -0.00000000000E+00 -0.10612792422E+05  0.10612792422E+05  0.00000000000E+00 0. -1.
       23    1    1    2    0    0 -0.48206601531E+02  0.36245668361E+02 -0.29992827465E+04  0.30012747075E+04  0.91188000000E+02 0.  0.
       21    1    1    2  503  502  0.65120718046E+02 -0.77805570433E+01 -0.51092872685E+04  0.51097081753E+04  0.00000000000E+00 0.  1.
        2    1    1    2  501    0 -0.16914116516E+02 -0.28465111318E+02 -0.25029064698E+04  0.25031254756E+04  0.00000000000E+00 0. -1.
<scales pt_clust_3="100000.00000" pt_clust_4="65.58388" pt_clust_5="100000.00000"></scales>
<rwgt>
<wgt id='bias'>   0.1000000E+01</wgt>
</rwgt>
<clustering>
<clus scale="   33.111">  3  5 -1 -1</clus>
<clus scale="   65.584">  2  4  1 -1</clus>
<clus scale="  155.997">  1  3  2 -1</clus>
</clustering>
</event>
<event>
 4   2  0.8512900E+003  0.1076773E+03  0.7546771E-02  0.1151184E+00
       21   -1    0    0  501  502  0.00000000000E+00  0.00000000000E+00  0.22425147717E+02  0.22425147717E+02  0.00000000000E+00 0.  1.
        4   -1    0    0  502    0 -0.00000000000E+00 -0.00000000000E+00 -0.36367548894E+03  0.36367548894E+03  0.00000000000E+00 0. -1.
       23    1    1    2    0    0 -0.18417477938E+02 -0.54221202302E+02 -0.28965356136E+03  0.30902035406E+03  0.91188000000E+02 0.  0.
        4    1    1    2  501    0  0.18417477938E+02  0.54221202302E+02 -0.51596779868E+02  0.77080282598E+02  0.00000000000E+00 0. -1.
<scales pt_clust_3="100000.00000" pt_clust_4="57.26380"></scales>
<rwgt>
<wgt id='bias'>   0.1000000E+01</wgt>
</rwgt>
<clustering>
<clus scale="   57.264">  1  4  2 -1</clus>
<clus scale="   57.264">  1  3  2 -1</clus>
</clustering>
</event>
<event>
 4   2  0.8512900E+003  0.9188372E+02  0.7546771E-02  0.1178671E+00
       -3   -1    0    0    0  501 -0.00000000000E+00  0.00000000000E+00  0.22789902365E+01  0.22789902365E+01  0.00000000000E+00 0.  1.
        3   -1    0    0  502    0  0.00000000000E+00 -0.00000000000E+00 -0.12420146175E+04  0.12420146175E+04  0.00000000000E+00 0. -1.
       23    1    1    2    0    0 -0.90835798083E+01 -0.66974729033E+01 -0.97569871691E+03  0.98001561471E+03  0.91188000000E+02 0. -1.
       21    1    1    2  502  501  0.90835798083E+01  0.66974729033E+01 -0.26403691039E+03  0.26427799305E+03  0.00000000000E+00 0.  1.
<scales pt_clust_3="100000.00000" pt_clust_4="11.28572"></scales>
<rwgt>
<wgt id='bias'>   0.1000000E+01</wgt>
</rwgt>
<clustering>
<clus scale="   11.286">  2  4  1 -1</clus>
<clus scale="   11.286">  2  3  1 -1</clus>
</clustering>
</event>
<event>
 4   2  0.8512900E+003  0.9199852E+02  0.7546771E-02  0.1178449E+00
        1   -1    0    0  502    0  0.00000000000E+00  0.00000000000E+00  0.63796407492E+02  0.63796407492E+02  0.00000000000E+00 0. -1.
       -1   -1    0    0    0  501 -0.00000000000E+00 -0.00000000000E+00 -0.68185167735E+02  0.68185167735E+02  0.00000000000E+00 0.  1.
       23    1    1    2    0    0  0.13677376957E+01  0.12108044312E+02 -0.35468244112E+02  0.98598798815E+02  0.91188000000E+02 0.  1.
       21    1    1    2  502  501 -0.13677376957E+01 -0.12108044312E+02  0.31079483868E+02  0.33382776412E+02  0.00000000000E+00 0. -1.
<scales pt_clust_3="100000.00000" pt_clust_4="12.18505"></scales>
<rwgt>
<wgt id='bias'>   0.1000000E+01</wgt>
</rwgt>
<clustering>
<clus scale="   12.185">  1  4  2 -1</clus>
<clus scale="   12.185">  1  3  2 -1</clus>
</clustering>
</event>
<event>
 3   1  0.8512900E+003  0.9118800E+02  0.7546771E-02  0.1180022E+00
       -2   -1    0    0    0  501 -0.00000000000E+00  0.00000000000E+00  0.21779902204E+04  0.21779902204E+04  0.00000000000E+00 0.  1.
        2   -1    0    0  501    0  0.00000000000E+00 -0.00000000000E+00 -0.95446380639E+00  0.95446380639E+00  0.00000000000E+00 0. -1.
       23    1    1    2    0    0  0.00000000000E+00 -0.00000000000E+00  0.21770357565E+04  0.21789446842E+04  0.91188000000E+02 0.  1.
<scales pt_clust_3="100000.00000"></scales>
<rwgt>
<wgt id='bias'>   0.1000000E+01</wgt>
</rwgt>
<clustering>
<clus scale="   91.188">  2  3  1 -1</clus>
</clustering>
</event>
<event>
 4   2  0.8512900E+003  0.9195917E+02  0.7546771E-02  0.1178525E+00
        2   -1    0    0  502    0  0.00000000000E+00  0.00000000000E+00  0.76209624721E+03  0.76209624721E+03  0.00000000000E+00 0. -1.
       -2   -1    0    0    0  501 -0.00000000000E+00 -0.00000000000E+00 -0.35738451207E+01  0.35738451207E+01  0.00000000000E+00 0.  1.
       23    1    1    2    0    0 -0.72202026680E+01 -0.94396339968E+01  0.69351887969E+03  0.69958911215E+03  0.91188000000E+02 0.  0.
       21    1    1    2  502  501  0.72202026680E+01  0.94396339968E+01  0.65003522402E+02  0.66080980177E+02  0.00000000000E+00 0. -1.
<scales pt_clust_3="100000.00000" pt_clust_4="11.88436"></scales>
<rwgt>
<wgt id='bias'>   0.1000000E+01</wgt>
</rwgt>
<clustering>
<clus scale="   11.884">  2  4  1 -1</clus>
<clus scale="   91.959">  1  3  2 -1</clus>
</clustering>
</event>
<event>
 3   1  0.8512900E+003  0.9118800E+02  0.7546771E-02  0.1180022E+00
       -2   -1    0    0    0  501 -0.00000000000E+00  0.00000000000E+00  0.22446081053E+00  0.22446081053E+00  0.00000000000E+00 0.  1.
        2   -1    0    0  501    0  0.00000000000E+00 -0.00000000000E+00 -0.92613620663E+04  0.92613620663E+04  0.00000000000E+00 0. -1.
       23    1    1    2    0    0  0.00000000000E+00 -0.00000000000E+00 -0.92611376055E+04  0.92615865271E+04  0.91188000000E+02 0.  1.
<scales pt_clust_3="100000.00000"></scales>
<rwgt>
<wgt id='bias'>   0.1000000E+01</wgt>
</rwgt>
<clustering>
<clus scale="   91.188">  2  3  1 -1</clus>
</clustering>
</event>
<event>
 4   2  0.8512900E+003  0.9505361E+02  0.7546771E-02  0.1172678E+00
       21   -1    0    0  501  502  0.00000000000E+00  0.00000000000E+00  0.13696426463E+03  0.13696426463E+03  0.00000000000E+00 0.  1.
       -3   -1    0    0    0  501 -0.00000000000E+00 -0.00000000000E+00 -0.68084621637E+02  0.68084621637E+02  0.00000000000E+00 0.  1.
       23    1    1    2    0    0 -0.26272676613E+02 -0.54483503875E+01 -0.32284733710E+02  0.10038671941E+03  0.91188000000E+02 0.  1.
       -3    1    1    2    0  502  0.26272676613E+02  0.54483503875E+01  0.10116437670E+03  0.10466216686E+03  0.00000000000E+00 0.  1.
<scales pt_clust_3="100000.00000" pt_clust_4="26.83166"></scales>
<rwgt>
<wgt id='bias'>   0.1000000E+01</wgt>
</rwgt>
<clustering>
<clus scale="   26.832">  1  4  2 -1</clus>
<clus scale="   26.832">  1  3  2 -1</clus>
</clustering>
</event>
<event>
 3   1  0.8512900E+003  0.9118800E+02  0.7546771E-02  0.1180022E+00
        2   -1    0    0  501    0  0.00000000000E+00  0.00000000000E+00  0.39845850036E+02  0.39845850036E+02  0.00000000000E+00 0. -1.
       -2   -1    0    0    0  501 -0.00000000000E+00 -0.00000000000E+00 -0.52171376295E+02  0.52171376295E+02  0.00000000000E+00 0.  1.
       23    1    1    2    0    0  0.00000000000E+00  0.00000000000E+00 -0.12325526259E+02  0.92017226331E+02  0.91188000000E+02 0. -1.
<scales pt_clust_3="100000.00000"></scales>
<rwgt>
<wgt id='bias'>   0.1000000E+01</wgt>
</rwgt>
<clustering>
<clus scale="   91.188">  1  3  2 -1</clus>
</clustering>
</event>
<event>
 3   1  0.8512900E+003  0.9118800E+02  0.7546771E-02  0.1180022E+00
        3   -1    0    0  501    0  0.00000000000E+00  0.00000000000E+00  0.18607283658E+03  0.18607283658E+03  0.00000000000E+00 0. -1.
       -3   -1    0    0    0  501 -0.00000000000E+00 -0.00000000000E+00 -0.11172038188E+02  0.11172038188E+02  0.00000000000E+00 0.  1.
       23    1    1    2    0    0  0.00000000000E+00  0.00000000000E+00  0.17490079839E+03  0.19724487476E+03  0.91188000000E+02 0. -1.
<scales pt_clust_3="100000.00000"></scales>
<rwgt>
<wgt id='bias'>   0.1000000E+01</wgt>
</rwgt>
<clustering>
<clus scale="   91.188">  1  3  2 -1</clus>
</clustering>
</event>
<event>
 3   1  0.8512900E+003  0.9118800E+02  0.7546771E-02  0.1180022E+00
        1   -1    0    0  501    0  0.00000000000E+00  0.00000000000E+00  0.46766482643E+02  0.46766482643E+02  0.00000000000E+00 0. -1.
       -1   -1    0    0    0  501 -0.00000000000E+00 -0.00000000000E+00 -0.44450912674E+02  0.44450912674E+02  0.00000000000E+00 0.  1.
       23    1    1    2    0    0  0.00000000000E+00  0.00000000000E+00  0.23155699692E+01  0.91217395316E+02  0.91188000000E+02 0. -1.
<scales pt_clust_3="100000.00000"></scales>
<rwgt>
<wgt id='bias'>   0.1000000E+01</wgt>
</rwgt>
<clustering>
<clus scale="   91.188">  1  3  2 -1</clus>
</clustering>
</event>
<event>
 5   3  0.8512900E+003  0.1196481E+03  0.7546771E-02  0.1133623E+00
       21   -1    0    0  501  502  0.00000000000E+00  0.00000000000E+00  0.34698847819E+02  0.34698847819E+02  0.00000000000E+00 0.  1.
        1   -1    0    0  503    0 -0.00000000000E+00 -0.00000000000E+00 -0.76153656384E+03  0.76153656384E+03  0.00000000000E+00 0. -1.
       23    1    1    2    0    0 -0.53834430547E+01  0.72472670155E+01 -0.74806677709E+03  0.75365818424E+03  0.91188000000E+02 0. -1.
       21    1    1    2  503  502  0.90246604202E+01 -0.14339139074E+02  0.27591065179E+02  0.32377805404E+02  0.00000000000E+00 0.  1.
        1    1    1    2  501    0 -0.36412173656E+01  0.70918720583E+01 -0.63620041114E+01  0.10199422018E+02  0.00000000000E+00 0. -1.
<scales pt_clust_3="100000.00000" pt_clust_4="16.94271" pt_clust_5="100000.00000"></scales>
<rwgt>
<wgt id='bias'>   0.1000000E+01</wgt>
</rwgt>
<clustering>
<clus scale="    7.972">  3  5 -1 -1</clus>
<clus scale="   16.943">  1  4  2 -1</clus>
<clus scale="   16.943">  1  3  2 -1</clus>
</clustering>
</event>
<event>
 4   2  0.8512900E+003  0.9533685E+02  0.7546771E-02  0.1172156E+00
       -3   -1    0    0    0  501 -0.00000000000E+00  0.00000000000E+00  0.17452910090E+03  0.17452910090E+03  0.00000000000E+00 0.  1.
        3   -1    0    0  502    0  0.00000000000E+00 -0.00000000000E+00 -0.21734154287E+02  0.21734154287E+02  0.00000000000E+00 0. -1.
       23    1    1    2    0    0  0.13691374910E+02 -0.24215882611E+02  0.11666671870E+03  0.15066597929E+03  0.91188000000E+02 0.  0.
       21    1    1    2  502  501 -0.13691374910E+02  0.24215882611E+02  0.36128227909E+02  0.45597275899E+02  0.00000000000E+00 0.  1.
<scales pt_clust_3="100000.00000" pt_clust_4="27.81839"></scales>
<rwgt>
<wgt id='bias'>   0.1000000E+01</wgt>
</rwgt>
<clustering>
<clus scale="   27.818">  1  4  2 -1</clus>
<clus scale="   95.337">  2  3  1 -1</clus>
</clustering>
</event>
<event>
 5   3  0.8512900E+003  0.1177746E+03  0.7546771E-02  0.1136219E+00
       -1   -1    0    0    0  501 -0.00000000000E+00  0.00000000000E+00  0.54526404998E+04  0.54526404998E+04  0.00000000000E+00 0.  1.
       21   -1    0    0  501  502  0.00000000000E+00 -0.00000000000E+00 -0.13408880074E+02  0.13408880074E+02  0.00000000000E+00 0. -1.
       23    1    1    2    0    0 -0.13772122697E+02 -0.32742069901E+01  0.44056353937E+04  0.44066017366E+04  0.91188000000E+02 0.  1.
       21    1    1    2  503  502 -0.11509378339E+02  0.36196962456E+01 -0.99233489412E+01  0.15621806709E+02  0.00000000000E+00 0. -1.
       -1    1    1    2    0  503  0.25281501036E+02 -0.34548925552E+00  0.10435195750E+04  0.10438258366E+04  0.00000000000E+00 0.  1.
<scales pt_clust_3="100000.00000" pt_clust_4="12.06516" pt_clust_5="100000.00000"></scales>
<rwgt>
<wgt id='bias'>   0.1000000E+01</wgt>
</rwgt>
<clustering>
<clus scale="   12.065">  2  4  1 -1</clus>
<clus scale="   22.518">  3  5 -1 -1</clus>
<clus scale="   12.065">  2  3  1 -1</clus>
</clustering>
</event>
<event>
 4   2  0.8512900E+003  0.9220881E+02  0.7546771E-02  0.1178043E+00
        2   -1    0    0  502    0 -0.00000000000E+00  0.00000000000E+00  0.23148391014E+04  0.23148391014E+04  0.00000000000E+00 0. -1.
       21   -1    0    0  501  502  0.00000000000E+00 -0.00000000000E+00 -0.14822664484E+02  0.14822664484E+02  0.00000000000E+00 0. -1.
       23    1    1    2    0    0 -0.95537539437E+00 -0.13649218008E+02  0.23105530947E+04  0.23123922826E+04  0.91188000000E+02 0. -1.
        2    1    1    2  501    0  0.95537539437E+00  0.13649218008E+02 -0.10536657802E+02  0.17269483258E+02  0.00000000000E+00 0. -1.
<scales pt_clust_3="100000.00000" pt_clust_4="13.68261"></scales>
<rwgt>
<wgt id='bias'>   0.1000000E+01</wgt>
</rwgt>
<clustering>
<clus scale="   13.683">  2  4  1 -1</clus>
<clus scale="   13.683">  2  3  1 -1</clus>
</clustering>
</event>
<event>
 3   1  0.8512900E+003  0.9118800E+02  0.7546771E-02  0.1180022E+00
       -1   -1    0    0    0  501 -0.00000000000E+00  0.00000000000E+00  0.34332106642E+01  0.34332106642E+01  0.00000000000E+00 0.  1.
        1   -1    0    0  501    0  0.00000000000E+00 -0.00000000000E+00 -0.60550110066E+03  0.60550110066E+03  0.00000000000E+00 0. -1.
       23    1    1    2    0    0  0.00000000000E+00 -0.00000000000E+00 -0.60206789000E+03  0.60893431133E+03  0.91188000000E+02 0.  1.
<scales pt_clust_3="100000.00000"></scales>
<rwgt>
<wgt id='bias'>   0.1000000E+01</wgt>
</rwgt>
<clustering>
<clus scale="   91.188">  2  3  1 -1</clus>
</clustering>
</event>
<event>
 4   2  0.8512900E+003  0.9227594E+02  0.7546771E-02  0.1177914E+00
        4   -1    0    0  502    0 -0.00000000000E+00  0.00000000000E+00  0.17558048113E+02  0.17558048113E+02  0.00000000000E+00 0.  1.
       21   -1    0    0  501  502  0.00000000000E+00 -0.00000000000E+00 -0.18953130215E+03  0.18953130215E+03  0.00000000000E+00 0. -1.
       23    1    1    2    0    0 -0.86943302987E+00  0.14101158767E+02 -0.11025236970E+03  0.14377216337E+03  0.91188000000E+02 0.  0.
        4    1    1    2  501    0  0.86943302987E+00 -0.14101158767E+02 -0.61720884343E+02  0.63317186896E+02  0.00000000000E+00 0.  1.
<scales pt_clust_3="100000.00000" pt_clust_4="14.12794"></scales>
<rwgt>
<wgt id='bias'>   0.1000000E+01</wgt>
</rwgt>
<clustering>
<clus scale="   14.128">  2  4  1 -1</clus>
<clus scale="   14.128">  2  3  1 -1</clus>
</clustering>
</event>
<event>
 3   1  0.8512900E+003  0.9118800E+02  0.7546771E-02  0.1180022E+00
        3   -1    0    0  501    0  0.00000000000E+00  0.00000000000E+00  0.25947746784E+03  0.25947746784E+03  0.00000000000E+00 0. -1.
       -3   -1    0    0    0  501 -0.00000000000E+00 -0.00000000000E+00 -0.80115350797E+01  0.80115350797E+01  0.00000000000E+00 0.  1.
       23    1    1    2    0    0  0.00000000000E+00  0.00000000000E+00  0.25146593276E+03  0.26748900292E+03  0.91188000000E+02 0. -1.
<scales pt_clust_3="100000.00000"></scales>
<rwgt>
<wgt id='bias'>   0.1000000E+01</wgt>
</rwgt>
<clustering>
<clus scale="   91.188">  1  3  2 -1</clus>
</clustering>
</event>
<event>
 3   1  0.8512900E+003  0.9118800E+02  0.7546771E-02  0.1180022E+00
       -4   -1    0    0    0  501 -0.00000000000E+00  0.00000000000E+00  0.25148300581E+01  0.25148300581E+01  0.00000000000E+00 0.  1.
        4   -1    0    0  501    0  0.00000000000E+00 -0.00000000000E+00 -0.82662159589E+03  0.82662159589E+03  0.00000000000E+00 0. -1.
       23    1    1    2    0    0  0.00000000000E+00 -0.00000000000E+00 -0.82410676583E+03  0.82913642595E+03  0.91188000000E+02 0.  1.
<scales pt_clust_3="100000.00000"></scales>
<rwgt>
<wgt id='bias'>   0.1000000E+01</wgt>
</rwgt>
<clustering>
<clus scale="   91.188">  2  3  1 -1</clus>
</clustering>
</event>
<event>
 5   3  0.8512900E+003  0.1293990E+03  0.7546771E-02  0.1120919E+00
       21   -1    0    0  503  502  0.00000000000E+00  0.00000000000E+00  0.15197475733E+01  0.15197475733E+01  0.00000000000E+00 0. -1.
        2   -1    0    0  502    0 -0.00000000000E+00 -0.00000000000E+00 -0.47822789813E+04  0.47822789813E+04  0.00000000000E+00 0. -1.
       23    1    1    2    0    0 -0.41512766321E+02 -0.82986179035E+01 -0.34921666364E+04  0.34936134939E+04  0.91188000000E+02 0.  1.
       21    1    1    2  503  501  0.15104577876E+02 -0.23121665787E+01 -0.92465307113E+02  0.93719407844E+02  0.00000000000E+00 0. -1.
        2    1    1    2  501    0  0.26408188445E+02  0.10610784482E+02 -0.11961272902E+04  0.11964658272E+04  0.00000000000E+00 0. -1.
<scales pt_clust_3="100000.00000" pt_clust_4="15.28052" pt_clust_5="100000.00000"></scales>
<rwgt>
<wgt id='bias'>   0.1000000E+01</wgt>
</rwgt>
<clustering>
<clus scale="   15.281">  1  4  2 -1</clus>
<clus scale="   30.989">  3  5 -1 -1</clus>
<clus scale="   15.281">  1  3  2 -1</clus>
</clustering>
</event>
<event>
 5   3  0.8512900E+003  0.2786476E+02  0.7546771E-02  0.1172131E+00
       21   -1    0    0  501  502  0.00000000000E+00  0.00000000000E+00  0.44927741220E+04  0.44927741220E+04  0.00000000000E+00 0.  1.
        3   -1    0    0  503    0 -0.00000000000E+00 -0.00000000000E+00 -0.25942709121E+02  0.25942709121E+02  0.00000000000E+00 0. -1.
       23    1    1    2    0    0  0.59963885020E+01 -0.27619600870E+02  0.37910178971E+04  0.37922197650E+04  0.91188000000E+02 0.  1.
       21    1    1    2  503  502 -0.24130513777E+02  0.13970160196E+02 -0.17429804193E+02  0.32882292275E+02  0.00000000000E+00 0. -1.
        3    1    1    2  501    0  0.18134125275E+02  0.13649440674E+02  0.69324332002E+03  0.69361477383E+03  0.00000000000E+00 0. -1.
<scales pt_clust_3="100000.00000" pt_clust_4="27.86476" pt_clust_5="22.69700"></scales>
<rwgt>
<wgt id='bias'>   0.1000000E+01</wgt>
</rwgt>
<clustering>
<clus scale="   22.697">  1  5  2 -1</clus>
<clus scale="   27.865">  2  4  1 -1</clus>
<clus scale="   22.697">  1  3  2 -1</clus>
</clustering>
</event>
<event>
 4   2  0.8512900E+003  0.2926655E+03  0.7546771E-02  0.1004021E+00
       21   -1    0    0  501  502  0.00000000000E+00  0.00000000000E+00  0.17466948254E+04  0.17466948254E+04  0.00000000000E+00 0.  1.
        5   -1    0    0  502    0 -0.00000000000E+00 -0.00000000000E+00 -0.12259306366E+02  0.12259306366E+02  0.00000000000E+00 0. -1.
       23    1    1    2    0    0  0.22628146672E+02 -0.99431721348E+02  0.14563562509E+04  0.14627670632E+04  0.91188000000E+02 0.  1.
        5    1    1    2  501    0 -0.22628146672E+02  0.99431721348E+02  0.27807926808E+03  0.29618706853E+03  0.00000000000E+00 0. -1.
<scales pt_clust_3="100000.00000" pt_clust_4="100000.00000"></scales>
<rwgt>
<wgt id='bias'>   0.1000000E+01</wgt>
</rwgt>
<clustering>
<clus scale="  101.974">  3  4 -1 -1</clus>
<clus scale="  292.665">  1  3  2 -1</clus>
</clustering>
</event>
<event>
 5   3  0.8512900E+003  0.1090930E+03  0.7546771E-02  0.1148979E+00
       21   -1    0    0  501  502  0.00000000000E+00  0.00000000000E+00  0.23155107483E+02  0.23155107483E+02  0.00000000000E+00 0. -1.
        1   -1    0    0  503    0 -0.00000000000E+00 -0.00000000000E+00 -0.29327682905E+03  0.29327682905E+03  0.00000000000E+00 0. -1.
       23    1    1    2    0    0 -0.15785299021E+02 -0.12442609816E+02 -0.24987212188E+03  0.26674955078E+03  0.91188000000E+02 0. -1.
       21    1    1    2  503  502  0.16362383640E+02 -0.25293613612E+01  0.74767301462E+01  0.18166638681E+02  0.00000000000E+00 0. -1.
        1    1    1    2  501    0 -0.57708461915E+00  0.14971971177E+02 -0.27726329829E+02  0.31515747070E+02  0.00000000000E+00 0. -1.
<scales pt_clust_3="100000.00000" pt_clust_4="16.55673" pt_clust_5="100000.00000"></scales>
<rwgt>
<wgt id='bias'>   0.1000000E+01</wgt>
</rwgt>
<clustering>
<clus scale="   14.983">  3  5 -1 -1</clus>
<clus scale="   16.557">  1  4  2 -1</clus>
<clus scale="   16.557">  1  3  2 -1</clus>
</clustering>
</event>
<event>
 4   2  0.8512900E+003  0.1127150E+03  0.7546771E-02  0.1143502E+00
       -3   -1    0    0    0  501 -0.00000000000E+00  0.00000000000E+00  0.17490650404E+02  0.17490650404E+02  0.00000000000E+00 0.  1.
       21   -1    0    0  501  502  0.00000000000E+00 -0.00000000000E+00 -0.59946532737E+03  0.59946532737E+03  0.00000000000E+00 0.  1.
       23    1    1    2    0    0  0.36331102845E+02  0.55402771794E+02 -0.20263470577E+03  0.23187386977E+03  0.91188000000E+02 0.  1.
       -3    1    1    2    0  502 -0.36331102845E+02 -0.55402771794E+02 -0.37933997119E+03  0.38508210800E+03  0.00000000000E+00 0.  1.
<scales pt_clust_3="100000.00000" pt_clust_4="66.25267"></scales>
<rwgt>
<wgt id='bias'>   0.1000000E+01</wgt>
</rwgt>
<clustering>
<clus scale="   66.253">  2  4  1 -1</clus>
<clus scale="   66.253">  2  3  1 -1</clus>
</clustering>
</event>
<event>
 3   1  0.8512900E+003  0.9118800E+02  0.7546771E-02  0.1180022E+00
        4   -1    0    0  501    0  0.00000000000E+00  0.00000000000E+00  0.22801548280E+04  0.22801548280E+04  0.00000000000E+00 0. -1.
       -4   -1    0    0    0  501 -0.00000000000E+00 -0.00000000000E+00 -0.91169810508E+00  0.91169810508E+00  0.00000000000E+00 0.  1.
       23    1    1    2    0    0  0.00000000000E+00  0.00000000000E+00  0.22792431299E+04  0.22810665261E+04  0.91188000000E+02 0. -1.
<scales pt_clust_3="100000.00000"></scales>
<rwgt>
<wgt id='bias'>   0.1000000E+01</wgt>
</rwgt>
<clustering>
<clus scale="   91.188">  1  3  2 -1</clus>
</clustering>
</event>
<event>
 3   1  0.8512900E+003  0.9118800E+02  0.7546771E-02  0.1180022E+00
        1   -1    0    0  501    0  0.00000000000E+00  0.00000000000E+00  0.32228991619E+04  0.32228991619E+04  0.00000000000E+00 0. -1.
       -1   -1    0    0    0  501 -0.00000000000E+00 -0.00000000000E+00 -0.64501330373E+00  0.64501330373E+00  0.00000000000E+00 0.  1.
       23    1    1    2    0    0  0.00000000000E+00  0.00000000000E+00  0.32222541486E+04  0.32235441752E+04  0.91188000000E+02 0. -1.
<scales pt_clust_3="100000.00000"></scales>
<rwgt>
<wgt id='bias'>   0.1000000E+01</wgt>
</rwgt>
<clustering>
<clus scale="   91.188">  1  3  2 -1</clus>
</clustering>
</event>
<event>
 3   1  0.8512900E+003  0.9118800E+02  0.7546771E-02  0.1180022E+00
        2   -1    0    0  501    0  0.00000000000E+00  0.00000000000E+00  0.51086366427E+00  0.51086366427E+00  0.00000000000E+00 0.  1.
       -2   -1    0    0    0  501 -0.00000000000E+00 -0.00000000000E+00 -0.40692125540E+04  0.40692125540E+04  0.00000000000E+00 0. -1.
       23    1    1    2    0    0  0.00000000000E+00  0.00000000000E+00 -0.40687016903E+04  0.40697234176E+04  0.91188000000E+02 0.  1.
<scales pt_clust_3="100000.00000"></scales>
<rwgt>
<wgt id='bias'>   0.1000000E+01</wgt>
</rwgt>
<clustering>
<clus scale="   91.188">  1  3  2 -1</clus>
</clustering>
</event>
<event>
 3   1  0.8512900E+003  0.9118800E+02  0.7546771E-02  0.1180022E+00
        1   -1    0    0  501    0  0.00000000000E+00  0.00000000000E+00  0.20501175830E+03  0.20501175830E+03  0.00000000000E+00 0. -1.
       -1   -1    0    0    0  501 -0.00000000000E+00 -0.00000000000E+00 -0.10139968816E+02  0.10139968816E+02  0.00000000000E+00 0.  1.
       23    1    1    2    0    0  0.00000000000E+00  0.00000000000E+00  0.19487178949E+03  0.21515172712E+03  0.91188000000E+02 0. -1.
<scales pt_clust_3="100000.00000"></scales>
<rwgt>
<wgt id='bias'>   0.1000000E+01</wgt>
</rwgt>
<clustering>
<clus scale="   91.188">  1  3  2 -1</clus>
</clustering>
</event>
<event>
 5   3  0.8512900E+003  0.9275738E+02  0.7546771E-02  0.1176992E+00
       21   -1    0    0  503  502  0.00000000000E+00  0.00000000000E+00  0.75604006832E+03  0.75604006832E+03  0.00000000000E+00 0. -1.
        1   -1    0    0  502    0 -0.00000000000E+00 -0.00000000000E+00 -0.17807407255E+03  0.17807407255E+03  0.00000000000E+00 0. -1.
       23    1    1    2    0    0 -0.53843701461E+01 -0.14318397664E+02 -0.16324369917E+03  0.18761067298E+03  0.91188000000E+02 0. -1.
       21    1    1    2  503  501 -0.24670127999E+01 -0.10617243763E+02  0.67817635213E+03  0.67826394317E+03  0.00000000000E+00 0. -1.
        1    1    1    2  501    0  0.78513829460E+01  0.24935641427E+02  0.63033342808E+02  0.68239524713E+02  0.00000000000E+00 0. -1.
<scales pt_clust_3="100000.00000" pt_clust_4="10.90009" pt_clust_5="16.99060"></scales>
<rwgt>
<wgt id='bias'>   0.1000000E+01</wgt>
</rwgt>
<clustering>
<clus scale="   10.900">  1  4  2 -1</clus>
<clus scale="   16.991">  1  5  2 -1</clus>
<clus scale="   10.900">  1  3  2 -1</clus>
</clustering>
</event>
<event>
 3   1  0.8512900E+003  0.9118800E+02  0.7546771E-02  0.1180022E+00
       -3   -1    0    0    0  501 -0.00000000000E+00  0.00000000000E+00  0.68302867896E+00  0.68302867896E+00  0.00000000000E+00 0.  1.
        3   -1    0    0  501    0  0.00000000000E+00 -0.00000000000E+00 -0.30435220365E+04  0.30435220365E+04  0.00000000000E+00 0. -1.
       23    1    1    2    0    0  0.00000000000E+00 -0.00000000000E+00 -0.30428390079E+04  0.30442050652E+04  0.91188000000E+02 0.  1.
<scales pt_clust_3="100000.00000"></scales>
<rwgt>
<wgt id='bias'>   0.1000000E+01</wgt>
</rwgt>
<clustering>
<clus scale="   91.188">  2  3  1 -1</clus>
</clustering>
</event>
<event>
 3   1  0.8512900E+003  0.9118800E+02  0.7546771E-02  0.1180022E+00
       -3   -1    0    0    0  501 -0.00000000000E+00  0.00000000000E+00  0.10309490237E+02  0.10309490237E+02  0.00000000000E+00 0.  1.
        3   -1    0    0  501    0  0.00000000000E+00 -0.00000000000E+00 -0.20164070078E+03  0.20164070078E+03  0.00000000000E+00 0. -1.
       23    1    1    2    0    0  0.00000000000E+00 -0.00000000000E+00 -0.19133121054E+03  0.21195019102E+03  0.91188000000E+02 0.  1.
<scales pt_clust_3="100000.00000"></scales>
<rwgt>
<wgt id='bias'>   0.1000000E+01</wgt>
</rwgt>
<clustering>
<clus scale="   91.188">  2  3  1 -1</clus>
</clustering>
</event>
<event>
 3   1  0.8512900E+003  0.9118800E+02  0.7546771E-02  0.1180022E+00
        3   -1    0    0  501    0  0.00000000000E+00  0.00000000000E+00  0.46829839752E+01  0.46829839752E+01  0.00000000000E+00 0. -1.
       -3   -1    0    0    0  501 -0.00000000000E+00 -0.00000000000E+00 -0.44390774067E+03  0.44390774067E+03  0.00000000000E+00 0.  1.
       23    1    1    2    0    0  0.00000000000E+00  0.00000000000E+00 -0.43922475669E+03  0.44859072464E+03  0.91188000000E+02 0. -1.
<scales pt_clust_3="100000.00000"></scales>
<rwgt>
<wgt id='bias'>   0.1000000E+01</wgt>
</rwgt>
<clustering>
<clus scale="   91.188">  1  3  2 -1</clus>
</clustering>
</event>
<event>
 5   3  0.8512900E+003  0.1294249E+03  0.7546771E-02  0.1120887E+00
       -3   -1    0    0    0  501 -0.00000000000E+00  0.00000000000E+00  0.68119216167E+02  0.68119216167E+02  0.00000000000E+00 0.  1.
       21   -1    0    0  501  502  0.00000000000E+00 -0.00000000000E+00 -0.20703454301E+03  0.20703454301E+03  0.00000000000E+00 0.  1.
       23    1    1    2    0    0  0.77418626702E+02 -0.34006971586E+02 -0.88931049566E+02  0.15288590778E+03  0.91188000000E+02 0.  1.
       21    1    1    2  503  502  0.98010892126E+01 -0.57748954443E+01 -0.17839982029E+02  0.21158348847E+02  0.00000000000E+00 0. -1.
       -3    1    1    2    0  503 -0.87219715914E+02  0.39781867030E+02 -0.32144295246E+02  0.10110950255E+03  0.00000000000E+00 0.  1.
<scales pt_clust_3="100000.00000" pt_clust_4="11.37589" pt_clust_5="91.84533"></scales>
<rwgt>
<wgt id='bias'>   0.1000000E+01</wgt>
</rwgt>
<clustering>
<clus scale="   11.376">  2  4  1 -1</clus>
<clus scale="   91.845">  2  5  1 -1</clus>
<clus scale="   11.376">  2  3  1 -1</clus>
</clustering>
</event>
<event>
 5   3  0.8512900E+003  0.1739275E+03  0.7546771E-02  0.1075483E+00
        2   -1    0    0  502    0  0.00000000000E+00  0.00000000000E+00  0.30202407502E+04  0.30202407502E+04  0.00000000000E+00 0. -1.
       -2   -1    0    0    0  501 -0.00000000000E+00 -0.00000000000E+00 -0.24199513804E+02  0.24199513804E+02  0.00000000000E+00 0.  1.
       23    1    1    2    0    0  0.12925287381E+03 -0.72313353269E+02  0.32438775998E+03  0.36807362934E+03  0.91188000000E+02 0.  1.
       21    1    1    2  502  503 -0.87598630272E+02  0.66568447158E+02  0.22310809869E+04  0.22337921229E+04  0.00000000000E+00 0. -1.
       21    1    1    2  503  501 -0.41654243535E+02  0.57449061109E+01  0.44057248956E+03  0.44257451181E+03  0.00000000000E+00 0. -1.
<scales pt_clust_3="100000.00000" pt_clust_4="158.76418" pt_clust_5="35.35453"></scales>
<rwgt>
<wgt id='bias'>   0.1000000E+01</wgt>
</rwgt>
<clustering>
<clus scale="   35.355">  4  5 -1 -1</clus>
<clus scale="  158.764">  1  4  2 -1</clus>
<clus scale="  158.764">  1  3  2 -1</clus>
</clustering>
</event>
<event>
 4   2  0.8512900E+003  0.9489121E+02  0.7546771E-02  0.1172979E+00
        1   -1    0    0  502    0  0.00000000000E+00  0.00000000000E+00  0.83437516025E+03  0.83437516025E+03  0.00000000000E+00 0. -1.
       -1   -1    0    0    0  501 -0.00000000000E+00 -0.00000000000E+00 -0.45504792542E+01  0.45504792542E+01  0.00000000000E+00 0.  1.
       23    1    1    2    0    0 -0.19256064082E+02  0.17840809681E+02  0.57812461673E+03  0.58586040513E+03  0.91188000000E+02 0.  0.
       21    1    1    2  502  501  0.19256064082E+02 -0.17840809681E+02  0.25170006427E+03  0.25306523437E+03  0.00000000000E+00 0. -1.
<scales pt_clust_3="100000.00000" pt_clust_4="26.25053"></scales>
<rwgt>
<wgt id='bias'>   0.1000000E+01</wgt>
</rwgt>
<clustering>
<clus scale="   26.251">  1  4  2 -1</clus>
<clus scale="   26.251">  1  3  2 -1</clus>
</clustering>
</event>
<event>
 5   3  0.8512900E+003  0.5633719E+02  0.7546771E-02  0.1151956E+00
       21   -1    0    0  503  502  0.00000000000E+00  0.00000000000E+00  0.19930103083E+03  0.19930103083E+03  0.00000000000E+00 0.  1.
       21   -1    0    0  501  503 -0.00000000000E+00 -0.00000000000E+00 -0.56783550110E+03  0.56783550110E+03  0.00000000000E+00 0. -1.
       23    1    1    2    0    0  0.82473372003E+01 -0.36609558266E+02 -0.10599438571E+03  0.14476995363E+03  0.91188000000E+02 0. -1.
        5    1    1    2  501    0 -0.37283170291E+01  0.58123463668E+02 -0.43985489199E+03  0.44369422284E+03  0.00000000000E+00 0. -1.
       -5    1    1    2    0  502 -0.45190201713E+01 -0.21513905402E+02  0.17731480744E+03  0.17867235546E+03  0.00000000000E+00 0.  1.
<scales pt_clust_3="100000.00000" pt_clust_4="56.33719" pt_clust_5="21.98340"></scales>
<rwgt>
<wgt id='bias'>   0.1000000E+01</wgt>
</rwgt>
<clustering>
<clus scale="   21.983">  1  5  2 -1</clus>
<clus scale="   56.337">  2  4  1 -1</clus>
<clus scale="   21.983">  1  3  2 -1</clus>
</clustering>
</event>
<event>
 3   1  0.8512900E+003  0.9118800E+02  0.7546771E-02  0.1180022E+00
        2   -1    0    0  501    0  0.00000000000E+00  0.00000000000E+00  0.17747562505E+04  0.17747562505E+04  0.00000000000E+00 0. -1.
       -2   -1    0    0    0  501 -0.00000000000E+00 -0.00000000000E+00 -0.11713230115E+01  0.11713230115E+01  0.00000000000E+00 0.  1.
       23    1    1    2    0    0  0.00000000000E+00  0.00000000000E+00  0.17735849275E+04  0.17759275735E+04  0.91188000000E+02 0. -1.
<scales pt_clust_3="100000.00000"></scales>
<rwgt>
<wgt id='bias'>   0.1000000E+01</wgt>
</rwgt>
<clustering>
<clus scale="   91.188">  1  3  2 -1</clus>
</clustering>
</event>
<event>
 5   3  0.8512900E+003  0.7797702E+03  0.7546771E-02  0.8926880E-01
       -4   -1    0    0    0  501  0.00000000000E+00  0.00000000000E+00  0.37644401018E+03  0.37644401018E+03  0.00000000000E+00 0.  1.
       -1   -1    0    0    0  502 -0.00000000000E+00 -0.00000000000E+00 -0.32743879014E+04  0.32743879014E+04  0.00000000000E+00 0.  1.
       23    1    1    2    0    0 -0.18950094537E+03 -0.38216103321E+02  0.17688345813E+03  0.27744204431E+03  0.91188000000E+02 0.  1.
       -4    1    1    2    0  502 -0.17387725439E+03  0.40176075194E+03 -0.25402133593E+03  0.50613421195E+03  0.00000000000E+00 0.  1.
       -1    1    1    2    0  501  0.36337819976E+03 -0.36354464862E+03 -0.28208060135E+04  0.28672556554E+04  0.00000000000E+00 0.  1.
<scales pt_clust_3="100000.00000" pt_clust_4="100000.00000" pt_clust_5="514.01209"></scales>
<rwgt>
<wgt id='bias'>   0.1000000E+01</wgt>
</rwgt>
<clustering>
<clus scale="  437.773">  3  4 -1 -1</clus>
<clus scale="  514.012">  2  5  1 -1</clus>
<clus scale="  779.770">  1  3  2 -1</clus>
</clustering>
</event>
<event>
 5   3  0.8512900E+003  0.2272710E+03  0.7546771E-02  0.1037498E+00
       21   -1    0    0  503  502  0.00000000000E+00  0.00000000000E+00  0.36860526190E+03  0.36860526190E+03  0.00000000000E+00 0.  1.
       -3   -1    0    0    0  501 -0.00000000000E+00 -0.00000000000E+00 -0.39825152731E+02  0.39825152731E+02  0.00000000000E+00 0.  1.
       23    1    1    2    0    0 -0.60612010115E+01  0.29393877326E+02  0.23302960002E+02  0.98787739476E+02  0.91188000000E+02 0.  1.
       21    1    1    2  503  501 -0.12202934072E+02 -0.17247324680E+01  0.34309710761E+02  0.36456035914E+02  0.00000000000E+00 0. -1.
       -3    1    1    2    0  502  0.18264135083E+02 -0.27669144858E+02  0.27116743840E+03  0.27318663924E+03  0.00000000000E+00 0.  1.
<scales pt_clust_3="100000.00000" pt_clust_4="12.32422" pt_clust_5="100000.00000"></scales>
<rwgt>
<wgt id='bias'>   0.1000000E+01</wgt>
</rwgt>
<clustering>
<clus scale="   12.324">  1  4  2 -1</clus>
<clus scale="   30.238">  3  5 -1 -1</clus>
<clus scale="   12.324">  1  3  2 -1</clus>
</clustering>
</event>
<event>
 4   2  0.8512900E+003  0.9221169E+02  0.7546771E-02  0.1178038E+00
       -1   -1    0    0    0  501 -0.00000000000E+00  0.00000000000E+00  0.67691872371E+02  0.67691872371E+02  0.00000000000E+00 0.  1.
        1   -1    0    0  502    0  0.00000000000E+00 -0.00000000000E+00 -0.43277930768E+02  0.43277930768E+02  0.00000000000E+00 0. -1.
       23    1    1    2    0    0  0.13022684948E+02 -0.42606691915E+01  0.12973865338E+02  0.93119902014E+02  0.91188000000E+02 0.  1.
       21    1    1    2  502  501 -0.13022684948E+02  0.42606691915E+01  0.11440076265E+02  0.17849901125E+02  0.00000000000E+00 0. -1.
<scales pt_clust_3="100000.00000" pt_clust_4="13.70196"></scales>
<rwgt>
<wgt id='bias'>   0.1000000E+01</wgt>
</rwgt>
<clustering>
<clus scale="   13.702">  1  4  2 -1</clus>
<clus scale="   92.212">  2  3  1 -1</clus>
</clustering>
</event>
<event>
 4   2  0.8512900E+003  0.9469500E+02  0.7546771E-02  0.1173343E+00
       -1   -1    0    0    0  501 -0.00000000000E+00  0.00000000000E+00  0.10856369994E+02  0.10856369994E+02  0.00000000000E+00 0.  1.
        1   -1    0    0  502    0  0.00000000000E+00 -0.00000000000E+00 -0.37068253860E+03  0.37068253860E+03  0.00000000000E+00 0. -1.
       23    1    1    2    0    0 -0.13617509819E+02 -0.21597574199E+02 -0.22176326176E+03  0.24113499828E+03  0.91188000000E+02 0.  1.
       21    1    1    2  502  501  0.13617509819E+02  0.21597574199E+02 -0.13806290685E+03  0.14040391032E+03  0.00000000000E+00 0. -1.
<scales pt_clust_3="100000.00000" pt_clust_4="25.53217"></scales>
<rwgt>
<wgt id='bias'>   0.1000000E+01</wgt>
</rwgt>
<clustering>
<clus scale="   25.532">  2  4  1 -1</clus>
<clus scale="   25.532">  2  3  1 -1</clus>
</clustering>
</event>
<event>
 3   1  0.8512900E+003  0.9118800E+02  0.7546771E-02  0.1180022E+00
       -3   -1    0    0    0  501 -0.00000000000E+00  0.00000000000E+00  0.17429032772E+03  0.17429032772E+03  0.00000000000E+00 0.  1.
        3   -1    0    0  501    0  0.00000000000E+00 -0.00000000000E+00 -0.11927298911E+02  0.11927298911E+02  0.00000000000E+00 0. -1.
       23    1    1    2    0    0  0.00000000000E+00 -0.00000000000E+00  0.16236302881E+03  0.18621762663E+03  0.91188000000E+02 0.  1.
<scales pt_clust_3="100000.00000"></scales>
<rwgt>
<wgt id='bias'>   0.1000000E+01</wgt>
</rwgt>
<clustering>
<clus scale="   91.188">  2  3  1 -1</clus>
</clustering>
</event>
<event>
 3   1  0.8512900E+003  0.9118800E+02  0.7546771E-02  0.1180022E+00
        2   -1    0    0  501    0  0.00000000000E+00  0.00000000000E+00  0.65980136064E+01  0.65980136064E+01  0.00000000000E+00 0. -1.
       -2   -1    0    0    0  501 -0.00000000000E+00 -0.00000000000E+00 -0.31506646697E+03  0.31506646697E+03  0.00000000000E+00 0.  1.
       23    1    1    2    0    0  0.00000000000E+00  0.00000000000E+00 -0.30846845336E+03  0.32166448058E+03  0.91188000000E+02 0. -1.
<scales pt_clust_3="100000.00000"></scales>
<rwgt>
<wgt id='bias'>   0.1000000E+01</wgt>
</rwgt>
<clustering>
<clus scale="   91.188">  1  3  2 -1</clus>
</clustering>
</event>
<event>
 3   1  0.8512900E+003  0.9118800E+02  0.7546771E-02  0.1180022E+00
        2   -1    0    0  501    0  0.00000000000E+00  0.00000000000E+00  0.30370888398E+04  0.30370888398E+04  0.00000000000E+00 0. -1.
       -2   -1    0    0    0  501 -0.00000000000E+00 -0.00000000000E+00 -0.68447547820E+00  0.68447547820E+00  0.00000000000E+00 0.  1.
       23    1    1    2    0    0  0.00000000000E+00  0.00000000000E+00  0.30364043644E+04  0.30377733153E+04  0.91188000000E+02 0. -1.
<scales pt_clust_3="100000.00000"></scales>
<rwgt>
<wgt id='bias'>   0.1000000E+01</wgt>
</rwgt>
<clustering>
<clus scale="   91.188">  1  3  2 -1</clus>
</clustering>
</event>
<event>
 5   3  0.8512900E+003  0.9636063E+02  0.7546771E-02  0.1170284E+00
       21   -1    0    0  501  502  0.00000000000E+00  0.00000000000E+00  0.27875622119E+03  0.27875622119E+03  0.00000000000E+00 0.  1.
       -1   -1    0    0    0  501 -0.00000000000E+00 -0.00000000000E+00 -0.20024989097E+04  0.20024989097E+04  0.00000000000E+00 0.  1.
       23    1    1    2    0    0  0.11775393413E+02 -0.25471025458E+02 -0.18764287217E+04  0.18788526904E+04  0.91188000000E+02 0.  1.
       21    1    1    2  503  502  0.12375554655E+02 -0.62584331980E+01  0.27418084809E+03  0.27453134575E+03  0.00000000000E+00 0.  1.
       -1    1    1    2    0  503 -0.24150948068E+02  0.31729458656E+02 -0.12149481486E+03  0.12787109477E+03  0.00000000000E+00 0.  1.
<scales pt_clust_3="100000.00000" pt_clust_4="13.86803" pt_clust_5="31.14674"></scales>
<rwgt>
<wgt id='bias'>   0.1000000E+01</wgt>
</rwgt>
<clustering>
<clus scale="   13.868">  1  4  2 -1</clus>
<clus scale="   31.147">  1  5  2 -1</clus>
<clus scale="   13.868">  1  3  2 -1</clus>
</clustering>
</event>
<event>
 4   2  0.8512900E+003  0.1086515E+03  0.7546771E-02  0.1149662E+00
        2   -1    0    0  502    0  0.00000000000E+00  0.00000000000E+00  0.33801059308E+03  0.33801059308E+03  0.00000000000E+00 0. -1.
       -2   -1    0    0    0  501 -0.00000000000E+00 -0.00000000000E+00 -0.31880434087E+02  0.31880434087E+02  0.00000000000E+00 0.  1.
       23    1    1    2    0    0  0.46316929920E+02  0.36669250972E+02  0.28843800026E+03  0.30822333348E+03  0.91188000000E+02 0. -1.
       21    1    1    2  502  501 -0.46316929920E+02 -0.36669250972E+02  0.17692158734E+02  0.61667693687E+02  0.00000000000E+00 0.  1.
<scales pt_clust_3="100000.00000" pt_clust_4="59.07531"></scales>
<rwgt>
<wgt id='bias'>   0.1000000E+01</wgt>
</rwgt>
<clustering>
<clus scale="   59.075">  2  4  1 -1</clus>
<clus scale="  108.651">  1  3  2 -1</clus>
</clustering>
</event>
<event>
 3   1  0.8512900E+003  0.9118800E+02  0.7546771E-02  0.1180022E+00
        5   -1    0    0  501    0  0.00000000000E+00  0.00000000000E+00  0.62110718798E+00  0.62110718798E+00  0.00000000000E+00 0. -1.
       -5   -1    0    0    0  501 -0.00000000000E+00 -0.00000000000E+00 -0.33469469944E+04  0.33469469944E+04  0.00000000000E+00 0.  1.
       23    1    1    2    0    0  0.00000000000E+00  0.00000000000E+00 -0.33463258872E+04  0.33475681016E+04  0.91188000000E+02 0. -1.
<scales pt_clust_3="100000.00000"></scales>
<rwgt>
<wgt id='bias'>   0.1000000E+01</wgt>
</rwgt>
<clustering>
<clus scale="   91.188">  1  3  2 -1</clus>
</clustering>
</event>
<event>
 5   3  0.8512900E+003  0.9592536E+02  0.7546771E-02  0.1171076E+00
       -1   -1    0    0    0  501 -0.00000000000E+00  0.00000000000E+00  0.10537678638E+01  0.10537678638E+01  0.00000000000E+00 0.  1.
        1   -1    0    0  503    0  0.00000000000E+00 -0.00000000000E+00 -0.68028347352E+04  0.68028347352E+04  0.00000000000E+00 0. -1.
       23    1    1    2    0    0 -0.15847935038E+02  0.28729810892E+02 -0.62096775450E+04  0.62104337227E+04  0.91188000000E+02 0. -1.
       21    1    1    2  502  501  0.10867278088E+02 -0.31650720302E+01 -0.29331703896E+03  0.29353534840E+03  0.00000000000E+00 0. -1.
       21    1    1    2  503  502  0.49806569500E+01 -0.25564738862E+02 -0.29878638338E+03  0.29991943203E+03  0.00000000000E+00 0.  1.
<scales pt_clust_3="100000.00000" pt_clust_4="11.31881" pt_clust_5="29.77287"></scales>
<rwgt>
<wgt id='bias'>   0.1000000E+01</wgt>
</rwgt>
<clustering>
<clus scale="   11.319">  1  4  2 -1</clus>
<clus scale="   29.773">  1  5  2 -1</clus>
<clus scale="   95.925">  2  3  1 -1</clus>
</clustering>
</event>
<event>
 3   1  0.8512900E+003  0.9118800E+02  0.7546771E-02  0.1180022E+00
       -2   -1    0    0    0  501 -0.00000000000E+00  0.00000000000E+00  0.32371036515E+00  0.32371036515E+00  0.00000000000E+00 0.  1.
        2   -1    0    0  501    0  0.00000000000E+00 -0.00000000000E+00 -0.64218296965E+04  0.64218296965E+04  0.00000000000E+00 0. -1.
       23    1    1    2    0    0  0.00000000000E+00 -0.00000000000E+00 -0.64215059861E+04  0.64221534069E+04  0.91188000000E+02 0.  1.
<scales pt_clust_3="100000.00000"></scales>
<rwgt>
<wgt id='bias'>   0.1000000E+01</wgt>
</rwgt>
<clustering>
<clus scale="   91.188">  2  3  1 -1</clus>
</clustering>
</event>
<event>
 5   3  0.8512900E+003  0.1241936E+03  0.7546771E-02  0.1127539E+00
       -1   -1    0    0    0  501 -0.00000000000E+00  0.00000000000E+00  0.66743412740E+04  0.66743412740E+04  0.00000000000E+00 0.  1.
       21   -1    0    0  503  502  0.00000000000E+00 -0.00000000000E+00 -0.78789931205E+03  0.78789931205E+03  0.00000000000E+00 0. -1.
       23    1    1    2    0    0 -0.42481502625E+02 -0.71357673694E+02  0.56038918955E+04  0.56052489885E+04  0.91188000000E+02 0.  1.
       21    1    1    2  503  501 -0.23590426933E+02  0.95532012444E+01 -0.78510131948E+03  0.78551375147E+03  0.00000000000E+00 0. -1.
       -1    1    1    2    0  502  0.66071929557E+02  0.61804472450E+02  0.10676513860E+04  0.10714778461E+04  0.00000000000E+00 0.  1.
<scales pt_clust_3="100000.00000" pt_clust_4="25.45136" pt_clust_5="84.31367"></scales>
<rwgt>
<wgt id='bias'>   0.1000000E+01</wgt>
</rwgt>
<clustering>
<clus scale="   25.451">  2  4  1 -1</clus>
<clus scale="   84.314">  2  5  1 -1</clus>
<clus scale="   25.451">  2  3  1 -1</clus>
</clustering>
</event>
<event>
 3   1  0.8512900E+003  0.9118800E+02  0.7546771E-02  0.1180022E+00
       -1   -1    0    0    0  501 -0.00000000000E+00  0.00000000000E+00  0.82637122603E+01  0.82637122603E+01  0.00000000000E+00 0.  1.
        1   -1    0    0  501    0  0.00000000000E+00 -0.00000000000E+00 -0.25155919888E+03  0.25155919888E+03  0.00000000000E+00 0. -1.
       23    1    1    2    0    0  0.00000000000E+00 -0.00000000000E+00 -0.24329548662E+03  0.25982291114E+03  0.91188000000E+02 0.  1.
<scales pt_clust_3="100000.00000"></scales>
<rwgt>
<wgt id='bias'>   0.1000000E+01</wgt>
</rwgt>
<clustering>
<clus scale="   91.188">  2  3  1 -1</clus>
</clustering>
</event>
<event>
 5   3  0.8512900E+003  0.2341242E+02  0.7546771E-02  0.1174367E+00
        2   -1    0    0  503    0 -0.00000000000E+00  0.00000000000E+00  0.57179716845E+03  0.57179716845E+03  0.00000000000E+00 0. -1.
       21   -1    0    0  501  502  0.00000000000E+00 -0.00000000000E+00 -0.13624310552E+02  0.13624310552E+02  0.00000000000E+00 0.  1.
       23    1    1    2    0    0  0.26410627725E+02 -0.70537452613E+01  0.20977174522E+03  0.23036213451E+03  0.91188000000E+02 0.  1.
       21    1    1    2  503  502 -0.22442269612E+02 -0.66604926678E+01  0.33386490718E+03  0.33468461852E+03  0.00000000000E+00 0. -1.
        2    1    1    2  501    0 -0.39683581126E+01  0.13714237929E+02  0.14536205493E+02  0.20374725967E+02  0.00000000000E+00 0. -1.
<scales pt_clust_3="100000.00000" pt_clust_4="23.41242" pt_clust_5="14.27684"></scales>
<rwgt>
<wgt id='bias'>   0.1000000E+01</wgt>
</rwgt>
<clustering>
<clus scale="   14.277">  2  5  1 -1</clus>
<clus scale="   23.412">  1  4  2 -1</clus>
<clus scale="   14.277">  2  3  1 -1</clus>
</clustering>
</event>
<event>
 3   1  0.8512900E+003  0.9118800E+02  0.7546771E-02  0.1180022E+00
       -3   -1    0    0    0  501 -0.00000000000E+00  0.00000000000E+00  0.34530126572E+02  0.34530126572E+02  0.00000000000E+00 0.  1.
        3   -1    0    0  501    0  0.00000000000E+00 -0.00000000000E+00 -0.60202873327E+02  0.60202873327E+02  0.00000000000E+00 0. -1.
       23    1    1    2    0    0  0.00000000000E+00 -0.00000000000E+00 -0.25672746754E+02  0.94732999899E+02  0.91188000000E+02 0.  1.
<scales pt_clust_3="100000.00000"></scales>
<rwgt>
<wgt id='bias'>   0.1000000E+01</wgt>
</rwgt>
<clustering>
<clus scale="   91.188">  2  3  1 -1</clus>
</clustering>
</event>
<event>
 5   3  0.8512900E+003  0.9985645E+02  0.7546771E-02  0.1164083E+00
       -3   -1    0    0    0  501 -0.00000000000E+00  0.00000000000E+00  0.11288104028E+04  0.11288104028E+04  0.00000000000E+00 0.  1.
       21   -1    0    0  503  502  0.00000000000E+00 -0.00000000000E+00 -0.22248358429E+02  0.22248358429E+02  0.00000000000E+00 0.  1.
       23    1    1    2    0    0  0.26078945771E+02  0.24362524481E+02  0.95378868852E+03  0.95880225162E+03  0.91188000000E+02 0.  1.
       21    1    1    2  503  501 -0.24475161917E+02 -0.68232535953E+02  0.88059420585E+02  0.11405776636E+03  0.00000000000E+00 0.  1.
       -3    1    1    2    0  502 -0.16037838534E+01  0.43870011472E+02  0.64713935288E+02  0.78198743274E+02  0.00000000000E+00 0.  1.
<scales pt_clust_3="100000.00000" pt_clust_4="40.69472" pt_clust_5="43.89932"></scales>
<rwgt>
<wgt id='bias'>   0.1000000E+01</wgt>
</rwgt>
<clustering>
<clus scale="   43.899">  2  5  1 -1</clus>
<clus scale="   40.695">  2  4  1 -1</clus>
<clus scale="   43.899">  2  3  1 -1</clus>
</clustering>
</event>
<event>
 3   1  0.8512900E+003  0.9118800E+02  0.7546771E-02  0.1180022E+00
       -3   -1    0    0    0  501 -0.00000000000E+00  0.00000000000E+00  0.31452486213E+01  0.31452486213E+01  0.00000000000E+00 0.  1.
        3   -1    0    0  501    0  0.00000000000E+00 -0.00000000000E+00 -0.66093752396E+03  0.66093752396E+03  0.00000000000E+00 0. -1.
       23    1    1    2    0    0  0.00000000000E+00 -0.00000000000E+00 -0.65779227534E+03  0.66408277258E+03  0.91188000000E+02 0.  1.
<scales pt_clust_3="100000.00000"></scales>
<rwgt>
<wgt id='bias'>   0.1000000E+01</wgt>
</rwgt>
<clustering>
<clus scale="   91.188">  2  3  1 -1</clus>
</clustering>
</event>
<event>
 5   3  0.8512900E+003  0.3772511E+02  0.7546771E-02  0.1166131E+00
       21   -1    0    0  501  502  0.00000000000E+00  0.00000000000E+00  0.40230105084E+02  0.40230105084E+02  0.00000000000E+00 0. -1.
       21   -1    0    0  502  503 -0.00000000000E+00 -0.00000000000E+00 -0.73113603912E+03  0.73113603912E+03  0.00000000000E+00 0.  1.
       23    1    1    2    0    0 -0.57266723880E+02 -0.57079710642E+01 -0.27652317596E+03  0.29680359969E+03  0.91188000000E+02 0. -1.
        3    1    1    2  501    0  0.21019039507E+02  0.78028123265E+01  0.25058100940E+02  0.33624281773E+02  0.00000000000E+00 0. -1.
       -3    1    1    2    0  503  0.36247684373E+02 -0.20948412623E+01 -0.43944085902E+03  0.44093826275E+03  0.00000000000E+00 0.  1.
<scales pt_clust_3="100000.00000" pt_clust_4="22.42061" pt_clust_5="37.72511"></scales>
<rwgt>
<wgt id='bias'>   0.1000000E+01</wgt>
</rwgt>
<clustering>
<clus scale="   22.421">  1  4  2 -1</clus>
<clus scale="   37.725">  2  5  1 -1</clus>
<clus scale="   22.421">  1  3  2 -1</clus>
</clustering>
</event>
<event>
 3   1  0.8512900E+003  0.9118800E+02  0.7546771E-02  0.1180022E+00
       -1   -1    0    0    0  501 -0.00000000000E+00  0.00000000000E+00  0.18705224531E+02  0.18705224531E+02  0.00000000000E+00 0.  1.
        1   -1    0    0  501    0  0.00000000000E+00 -0.00000000000E+00 -0.11113541206E+03  0.11113541206E+03  0.00000000000E+00 0. -1.
       23    1    1    2    0    0  0.00000000000E+00 -0.00000000000E+00 -0.92430187534E+02  0.12984063660E+03  0.91188000000E+02 0.  1.
<scales pt_clust_3="100000.00000"></scales>
<rwgt>
<wgt id='bias'>   0.1000000E+01</wgt>
</rwgt>
<clustering>
<clus scale="   91.188">  2  3  1 -1</clus>
</clustering>
</event>
<event>
 4   2  0.8512900E+003  0.9356436E+02  0.7546771E-02  0.1175460E+00
       -1   -1    0    0    0  501 -0.00000000000E+00  0.00000000000E+00  0.77307181044E+00  0.77307181044E+00  0.00000000000E+00 0.  1.
        1   -1    0    0  502    0  0.00000000000E+00 -0.00000000000E+00 -0.42453756508E+04  0.42453756508E+04  0.00000000000E+00 0. -1.
       23    1    1    2    0    0  0.18946930690E+02  0.89472048567E+01 -0.34136384504E+04  0.34149204618E+04  0.91188000000E+02 0. -1.
       21    1    1    2  502  501 -0.18946930690E+02 -0.89472048567E+01 -0.83096412859E+03  0.83122826087E+03  0.00000000000E+00 0.  1.
<scales pt_clust_3="100000.00000" pt_clust_4="20.95325"></scales>
<rwgt>
<wgt id='bias'>   0.1000000E+01</wgt>
</rwgt>
<clustering>
<clus scale="   20.953">  2  4  1 -1</clus>
<clus scale="   20.953">  2  3  1 -1</clus>
</clustering>
</event>
<event>
 5   3  0.8512900E+003  0.2928814E+03  0.7546771E-02  0.1003927E+00
       -1   -1    0    0    0  502 -0.00000000000E+00  0.00000000000E+00  0.43041722996E+03  0.43041722996E+03  0.00000000000E+00 0.  1.
       -2   -1    0    0    0  501  0.00000000000E+00 -0.00000000000E+00 -0.35883316954E+03  0.35883316954E+03  0.00000000000E+00 0.  1.
       23    1    1    2    0    0 -0.98474276800E+01 -0.25895598844E+02  0.19922670415E+02  0.97363843452E+02  0.91188000000E+02 0.  0.
       -2    1    1    2    0  502  0.39234166383E+02  0.78532846080E+01 -0.31805678375E+03  0.32056374028E+03  0.00000000000E+00 0.  1.
       -1    1    1    2    0  501 -0.29386738703E+02  0.18042314236E+02  0.36971817375E+03  0.37132281577E+03  0.00000000000E+00 0.  1.
<scales pt_clust_3="100000.00000" pt_clust_4="100000.00000" pt_clust_5="34.48341"></scales>
<rwgt>
<wgt id='bias'>   0.1000000E+01</wgt>
</rwgt>
<clustering>
<clus scale="   34.483">  1  5  2 -1</clus>
<clus scale="   39.487">  3  4 -1 -1</clus>
<clus scale="  292.881">  2  3  1 -1</clus>
</clustering>
</event>
<event>
 4   2  0.8512900E+003  0.9237828E+02  0.7546771E-02  0.1177718E+00
        2   -1    0    0  502    0  0.00000000000E+00  0.00000000000E+00  0.43528698949E+02  0.43528698949E+02  0.00000000000E+00 0. -1.
       -2   -1    0    0    0  501 -0.00000000000E+00 -0.00000000000E+00 -0.85115785320E+02  0.85115785320E+02  0.00000000000E+00 0.  1.
       23    1    1    2    0    0  0.14740556207E+02 -0.11009799112E+01 -0.55977456077E+02  0.10801492067E+03  0.91188000000E+02 0.  1.
       21    1    1    2  502  501 -0.14740556207E+02  0.11009799112E+01  0.14390369707E+02  0.20629563601E+02  0.00000000000E+00 0. -1.
<scales pt_clust_3="100000.00000" pt_clust_4="14.78162"></scales>
<rwgt>
<wgt id='bias'>   0.1000000E+01</wgt>
</rwgt>
<clustering>
<clus scale="   14.782">  1  4  2 -1</clus>
<clus scale="   14.782">  1  3  2 -1</clus>
</clustering>
</event>
<event>
 5   3  0.8512900E+003  0.2105038E+02  0.7546771E-02  0.1175419E+00
       -1   -1    0    0    0  501 -0.00000000000E+00  0.00000000000E+00  0.20148284695E+01  0.20148284695E+01  0.00000000000E+00 0.  1.
       21   -1    0    0  503  502  0.00000000000E+00 -0.00000000000E+00 -0.66987082717E+04  0.66987082717E+04  0.00000000000E+00 0.  1.
       23    1    1    2    0    0 -0.91025565372E+01 -0.28511063569E+02 -0.14384014082E+04  0.14415996669E+04  0.91188000000E+02 0.  1.
       21    1    1    2  503  501  0.65852553375E+01  0.18469501355E+02 -0.23382407566E+03  0.23464480908E+03  0.00000000000E+00 0.  1.
       -1    1    1    2    0  502  0.25173011997E+01  0.10041562215E+02 -0.50244679594E+04  0.50244786242E+04  0.00000000000E+00 0.  1.
<scales pt_clust_3="100000.00000" pt_clust_4="21.05038" pt_clust_5="10.35228"></scales>
<rwgt>
<wgt id='bias'>   0.1000000E+01</wgt>
</rwgt>
<clustering>
<clus scale="   10.352">  2  5  1 -1</clus>
<clus scale="   21.050">  1  4  2 -1</clus>
<clus scale="   10.352">  2  3  1 -1</clus>
</clustering>
</event>
<event>
 3   1  0.8512900E+003  0.9118800E+02  0.7546771E-02  0.1180022E+00
        1   -1    0    0  501    0  0.00000000000E+00  0.00000000000E+00  0.53200758007E+01  0.53200758007E+01  0.00000000000E+00 0. -1.
       -1   -1    0    0    0  501 -0.00000000000E+00 -0.00000000000E+00 -0.39074872499E+03  0.39074872499E+03  0.00000000000E+00 0.  1.
       23    1    1    2    0    0  0.00000000000E+00  0.00000000000E+00 -0.38542864919E+03  0.39606880079E+03  0.91188000000E+02 0. -1.
<scales pt_clust_3="100000.00000"></scales>
<rwgt>
<wgt id='bias'>   0.1000000E+01</wgt>
</rwgt>
<clustering>
<clus scale="   91.188">  1  3  2 -1</clus>
</clustering>
</event>
<event>
 3   1  0.8512900E+003  0.9118800E+02  0.7546771E-02  0.1180022E+00
        2   -1    0    0  501    0  0.00000000000E+00  0.00000000000E+00  0.99928113339E+04  0.99928113339E+04  0.00000000000E+00 0. -1.
       -2   -1    0    0    0  501 -0.00000000000E+00 -0.00000000000E+00 -0.20803083002E+00  0.20803083002E+00  0.00000000000E+00 0.  1.
       23    1    1    2    0    0  0.00000000000E+00  0.00000000000E+00  0.99926033030E+04  0.99930193647E+04  0.91188000000E+02 0. -1.
<scales pt_clust_3="100000.00000"></scales>
<rwgt>
<wgt id='bias'>   0.1000000E+01</wgt>
</rwgt>
<clustering>
<clus scale="   91.188">  1  3  2 -1</clus>
</clustering>
</event>
<event>
 3   1  0.8512900E+003  0.9118800E+02  0.7546771E-02  0.1180022E+00
       -3   -1    0    0    0  501 -0.00000000000E+00  0.00000000000E+00  0.23243042953E+00  0.23243042953E+00  0.00000000000E+00 0.  1.
        3   -1    0    0  501    0  0.00000000000E+00 -0.00000000000E+00 -0.89438067132E+04  0.89438067132E+04  0.00000000000E+00 0. -1.
       23    1    1    2    0    0  0.00000000000E+00 -0.00000000000E+00 -0.89435742828E+04  0.89440391436E+04  0.91188000000E+02 0.  1.
<scales pt_clust_3="100000.00000"></scales>
<rwgt>
<wgt id='bias'>   0.1000000E+01</wgt>
</rwgt>
<clustering>
<clus scale="   91.188">  2  3  1 -1</clus>
</clustering>
</event>
<event>
 3   1  0.8512900E+003  0.9118800E+02  0.7546771E-02  0.1180022E+00
        1   -1    0    0  501    0  0.00000000000E+00  0.00000000000E+00  0.31656777415E+02  0.31656777415E+02  0.00000000000E+00 0. -1.
       -1   -1    0    0    0  501 -0.00000000000E+00 -0.00000000000E+00 -0.65667228498E+02  0.65667228498E+02  0.00000000000E+00 0.  1.
       23    1    1    2    0    0  0.00000000000E+00  0.00000000000E+00 -0.34010451084E+02  0.97324005913E+02  0.91188000000E+02 0. -1.
<scales pt_clust_3="100000.00000"></scales>
<rwgt>
<wgt id='bias'>   0.1000000E+01</wgt>
</rwgt>
<clustering>
<clus scale="   91.188">  1  3  2 -1</clus>
</clustering>
</event>
<event>
 4   2  0.8512900E+003  0.9175459E+02  0.7546771E-02  0.1178920E+00
       21   -1    0    0  501  502  0.00000000000E+00  0.00000000000E+00  0.83364960612E+01  0.83364960612E+01  0.00000000000E+00 0. -1.
       -5   -1    0    0    0  501 -0.00000000000E+00 -0.00000000000E+00 -0.33724313991E+03  0.33724313991E+03  0.00000000000E+00 0.  1.
       23    1    1    2    0    0 -0.92743281284E+01  0.42001355528E+01 -0.31649275500E+03  0.32952476327E+03  0.91188000000E+02 0.  1.
       -5    1    1    2    0  502  0.92743281284E+01 -0.42001355528E+01 -0.12413888849E+02  0.16054872695E+02  0.00000000000E+00 0.  1.
<scales pt_clust_3="100000.00000" pt_clust_4="10.18108"></scales>
<rwgt>
<wgt id='bias'>   0.1000000E+01</wgt>
</rwgt>
<clustering>
<clus scale="   10.181">  1  4  2 -1</clus>
<clus scale="   10.181">  1  3  2 -1</clus>
</clustering>
</event>
<event>
 3   1  0.8512900E+003  0.9118800E+02  0.7546771E-02  0.1180022E+00
       -4   -1    0    0    0  501 -0.00000000000E+00  0.00000000000E+00  0.68178207111E+02  0.68178207111E+02  0.00000000000E+00 0.  1.
        4   -1    0    0  501    0  0.00000000000E+00 -0.00000000000E+00 -0.30490869797E+02  0.30490869797E+02  0.00000000000E+00 0. -1.
       23    1    1    2    0    0  0.00000000000E+00 -0.00000000000E+00  0.37687337315E+02  0.98669076908E+02  0.91188000000E+02 0.  1.
<scales pt_clust_3="100000.00000"></scales>
<rwgt>
<wgt id='bias'>   0.1000000E+01</wgt>
</rwgt>
<clustering>
<clus scale="   91.188">  2  3  1 -1</clus>
</clustering>
</event>
<event>
 4   2  0.8512900E+003  0.9205681E+02  0.7546771E-02  0.1178336E+00
        4   -1    0    0  502    0  0.00000000000E+00  0.00000000000E+00  0.60187879458E+02  0.60187879458E+02  0.00000000000E+00 0.  1.
       -4   -1    0    0    0  501 -0.00000000000E+00 -0.00000000000E+00 -0.11782173683E+03  0.11782173683E+03  0.00000000000E+00 0. -1.
       23    1    1    2    0    0 -0.61616242535E+01  0.11010870434E+02  0.24219476230E+02  0.95189491300E+02  0.91188000000E+02 0.  1.
       21    1    1    2  502  501  0.61616242535E+01 -0.11010870434E+02 -0.81853333603E+02  0.82820124988E+02  0.00000000000E+00 0. -1.
<scales pt_clust_3="100000.00000" pt_clust_4="12.61764"></scales>
<rwgt>
<wgt id='bias'>   0.1000000E+01</wgt>
</rwgt>
<clustering>
<clus scale="   12.618">  2  4  1 -1</clus>
<clus scale="   92.057">  1  3  2 -1</clus>
</clustering>
</event>
<event>
 3   1  0.8512900E+003  0.9118800E+02  0.7546771E-02  0.1180022E+00
       -3   -1    0    0    0  501 -0.00000000000E+00  0.00000000000E+00  0.45840142710E+00  0.45840142710E+00  0.00000000000E+00 0.  1.
        3   -1    0    0  501    0  0.00000000000E+00 -0.00000000000E+00 -0.45349178975E+04  0.45349178975E+04  0.00000000000E+00 0. -1.
       23    1    1    2    0    0  0.00000000000E+00 -0.00000000000E+00 -0.45344594961E+04  0.45353762989E+04  0.91188000000E+02 0.  1.
<scales pt_clust_3="100000.00000"></scales>
<rwgt>
<wgt id='bias'>   0.1000000E+01</wgt>
</rwgt>
<clustering>
<clus scale="   91.188">  2  3  1 -1</clus>
</clustering>
</event>
<event>
 3   1  0.8512900E+003  0.9118800E+02  0.7546771E-02  0.1180022E+00
       -3   -1    0    0    0  501 -0.00000000000E+00  0.00000000000E+00  0.42889623652E+00  0.42889623652E+00  0.00000000000E+00 0.  1.
        3   -1    0    0  501    0  0.00000000000E+00 -0.00000000000E+00 -0.48468898979E+04  0.48468898979E+04  0.00000000000E+00 0. -1.
       23    1    1    2    0    0  0.00000000000E+00 -0.00000000000E+00 -0.48464610016E+04  0.48473187941E+04  0.91188000000E+02 0.  1.
<scales pt_clust_3="100000.00000"></scales>
<rwgt>
<wgt id='bias'>   0.1000000E+01</wgt>
</rwgt>
<clustering>
<clus scale="   91.188">  2  3  1 -1</clus>
</clustering>
</event>
<event>
 5   3  0.8512900E+003  0.2184502E+03  0.7546771E-02  0.1042948E+00
        2   -1    0    0  501    0  0.00000000000E+00  0.00000000000E+00  0.91499055582E+04  0.91499055582E+04  0.00000000000E+00 0.  1.
       -5   -1    0    0    0  501 -0.00000000000E+00 -0.00000000000E+00 -0.99468169575E+01  0.99468169575E+01  0.00000000000E+00 0.  1.
       23    1    1    2    0    0 -0.10396420782E+02  0.12746440760E+02  0.23487267731E+03  0.25248957049E+03  0.91188000000E+02 0.  0.
        2    1    1    2  502    0 -0.69086208782E+01  0.48886212938E+02  0.79411121789E+04  0.79412656566E+04  0.00000000000E+00 0.  1.
       -5    1    1    2    0  502  0.17305041661E+02 -0.61632653698E+02  0.96397388500E+03  0.96609714803E+03  0.00000000000E+00 0.  1.
<scales pt_clust_3="100000.00000" pt_clust_4="49.37196" pt_clust_5="100000.00000"></scales>
<rwgt>
<wgt id='bias'>   0.1000000E+01</wgt>
</rwgt>
<clustering>
<clus scale="   49.372">  1  4  2 -1</clus>
<clus scale="   25.492">  3  5 -1 -1</clus>
<clus scale="   49.372">  1  3  2 -1</clus>
</clustering>
</event>
<event>
 4   2  0.8512900E+003  0.9887282E+02  0.7546771E-02  0.1165799E+00
       21   -1    0    0  501  502  0.00000000000E+00  0.00000000000E+00  0.20058136805E+02  0.20058136805E+02  0.00000000000E+00 0. -1.
        1   -1    0    0  502    0 -0.00000000000E+00 -0.00000000000E+00 -0.55557279007E+03  0.55557279007E+03  0.00000000000E+00 0. -1.
       23    1    1    2    0    0  0.37696951121E+02  0.62867570916E+01 -0.52736572002E+03  0.53655422600E+03  0.91188000000E+02 0. -1.
        1    1    1    2  501    0 -0.37696951121E+02 -0.62867570916E+01 -0.81489332461E+01  0.39076700879E+02  0.00000000000E+00 0. -1.
<scales pt_clust_3="100000.00000" pt_clust_4="38.21758"></scales>
<rwgt>
<wgt id='bias'>   0.1000000E+01</wgt>
</rwgt>
<clustering>
<clus scale="   38.218">  1  4  2 -1</clus>
<clus scale="   38.218">  1  3  2 -1</clus>
</clustering>
</event>
<event>
 5   3  0.8512900E+003  0.9391010E+02  0.7546771E-02  0.1174809E+00
       -1   -1    0    0    0  501 -0.00000000000E+00  0.00000000000E+00  0.35261594489E+02  0.35261594489E+02  0.00000000000E+00 0.  1.
       21   -1    0    0  501  502  0.00000000000E+00 -0.00000000000E+00 -0.52610178510E+03  0.52610178510E+03  0.00000000000E+00 0. -1.
       23    1    1    2    0    0 -0.18979161477E+02 -0.21701531925E+02 -0.44384904167E+02  0.10543451105E+03  0.91188000000E+02 0.  1.
       21    1    1    2  503  502 -0.37633914668E+01  0.22108609960E+02 -0.42175444997E+03  0.42235029279E+03  0.00000000000E+00 0. -1.
       -1    1    1    2    0  503  0.22742552944E+02 -0.40707803435E+00 -0.24700836477E+02  0.33578575753E+02  0.00000000000E+00 0.  1.
<scales pt_clust_3="100000.00000" pt_clust_4="22.42663" pt_clust_5="22.44674"></scales>
<rwgt>
<wgt id='bias'>   0.1000000E+01</wgt>
</rwgt>
<clustering>
<clus scale="   22.427">  2  4  1 -1</clus>
<clus scale="   22.447">  2  5  1 -1</clus>
<clus scale="   22.427">  2  3  1 -1</clus>
</clustering>
</event>
<event>
 3   1  0.8512900E+003  0.9118800E+02  0.7546771E-02  0.1180022E+00
       -4   -1    0    0    0  501 -0.00000000000E+00  0.00000000000E+00  0.57405938927E+02  0.57405938927E+02  0.00000000000E+00 0.  1.
        4   -1    0    0  501    0  0.00000000000E+00 -0.00000000000E+00 -0.36212504749E+02  0.36212504749E+02  0.00000000000E+00 0. -1.
       23    1    1    2    0    0  0.00000000000E+00 -0.00000000000E+00  0.21193434179E+02  0.93618443676E+02  0.91188000000E+02 0.  1.
<scales pt_clust_3="100000.00000"></scales>
<rwgt>
<wgt id='bias'>   0.1000000E+01</wgt>
</rwgt>
<clustering>
<clus scale="   91.188">  2  3  1 -1</clus>
</clustering>
</event>
<event>
 5   3  0.8512900E+003  0.9619309E+02  0.7546771E-02  0.1170588E+00
       -3   -1    0    0    0  501 -0.00000000000E+00  0.00000000000E+00  0.85216387256E+02  0.85216387256E+02  0.00000000000E+00 0.  1.
        3   -1    0    0  502    0  0.00000000000E+00 -0.00000000000E+00 -0.49560345513E+02  0.49560345513E+02  0.00000000000E+00 0. -1.
       23    1    1    2    0    0  0.28767687424E+02  0.10501389915E+02  0.29063242342E+02  0.10048772278E+03  0.91188000000E+02 0.  0.
        3    1    1    2  502    0 -0.17693486911E+02  0.94999088235E+00  0.34986435784E+01  0.18061076066E+02  0.00000000000E+00 0.  1.
       -3    1    1    2    0  501 -0.11074200513E+02 -0.11451380797E+02  0.30941558229E+01  0.16227933924E+02  0.00000000000E+00 0. -1.
<scales pt_clust_3="100000.00000" pt_clust_4="33.64924" pt_clust_5="33.64924"></scales>
<rwgt>
<wgt id='bias'>   0.1000000E+01</wgt>
</rwgt>
<clustering>
<clus scale="   13.221">  4  5 -1 -1</clus>
<clus scale="   33.649">  2  4  1 -1</clus>
<clus scale="   33.649">  2  3  1 -1</clus>
</clustering>
</event>
<event>
 3   1  0.8512900E+003  0.9118800E+02  0.7546771E-02  0.1180022E+00
        1   -1    0    0  501    0  0.00000000000E+00  0.00000000000E+00  0.64753563906E+04  0.64753563906E+04  0.00000000000E+00 0. -1.
       -1   -1    0    0    0  501 -0.00000000000E+00 -0.00000000000E+00 -0.32103450538E+00  0.32103450538E+00  0.00000000000E+00 0.  1.
       23    1    1    2    0    0  0.00000000000E+00  0.00000000000E+00  0.64750353561E+04  0.64756774251E+04  0.91188000000E+02 0. -1.
<scales pt_clust_3="100000.00000"></scales>
<rwgt>
<wgt id='bias'>   0.1000000E+01</wgt>
</rwgt>
<clustering>
<clus scale="   91.188">  1  3  2 -1</clus>
</clustering>
</event>
<event>
 3   1  0.8512900E+003  0.9118800E+02  0.7546771E-02  0.1180022E+00
        3   -1    0    0  501    0  0.00000000000E+00  0.00000000000E+00  0.42414125709E+00  0.42414125709E+00  0.00000000000E+00 0. -1.
       -3   -1    0    0    0  501 -0.00000000000E+00 -0.00000000000E+00 -0.49012276010E+04  0.49012276010E+04  0.00000000000E+00 0.  1.
       23    1    1    2    0    0  0.00000000000E+00  0.00000000000E+00 -0.49008034598E+04  0.49016517423E+04  0.91188000000E+02 0. -1.
<scales pt_clust_3="100000.00000"></scales>
<rwgt>
<wgt id='bias'>   0.1000000E+01</wgt>
</rwgt>
<clustering>
<clus scale="   91.188">  1  3  2 -1</clus>
</clustering>
</event>
<event>
 4   2  0.8512900E+003  0.9185590E+02  0.7546771E-02  0.1178724E+00
       -5   -1    0    0    0  501 -0.00000000000E+00  0.00000000000E+00  0.74037604316E+01  0.74037604316E+01  0.00000000000E+00 0.  1.
        5   -1    0    0  502    0  0.00000000000E+00 -0.00000000000E+00 -0.36139200523E+03  0.36139200523E+03  0.00000000000E+00 0. -1.
       23    1    1    2    0    0 -0.10585658827E+01  0.11006087305E+02 -0.30274767128E+03  0.31637581818E+03  0.91188000000E+02 0.  0.
       21    1    1    2  502  501  0.10585658827E+01 -0.11006087305E+02 -0.51240573511E+02  0.52419947475E+02  0.00000000000E+00 0.  1.
<scales pt_clust_3="100000.00000" pt_clust_4="11.05688"></scales>
<rwgt>
<wgt id='bias'>   0.1000000E+01</wgt>
</rwgt>
<clustering>
<clus scale="   11.057">  2  4  1 -1</clus>
<clus scale="   11.057">  2  3  1 -1</clus>
</clustering>
</event>
<event>
 3   1  0.8512900E+003  0.9118800E+02  0.7546771E-02  0.1180022E+00
        1   -1    0    0  501    0  0.00000000000E+00  0.00000000000E+00  0.78787607346E+02  0.78787607346E+02  0.00000000000E+00 0. -1.
       -1   -1    0    0    0  501 -0.00000000000E+00 -0.00000000000E+00 -0.26385023052E+02  0.26385023052E+02  0.00000000000E+00 0.  1.
       23    1    1    2    0    0  0.00000000000E+00  0.00000000000E+00  0.52402584294E+02  0.10517263040E+03  0.91188000000E+02 0. -1.
<scales pt_clust_3="100000.00000"></scales>
<rwgt>
<wgt id='bias'>   0.1000000E+01</wgt>
</rwgt>
<clustering>
<clus scale="   91.188">  1  3  2 -1</clus>
</clustering>
</event>
<event>
 4   2  0.8512900E+003  0.9588683E+02  0.7546771E-02  0.1171147E+00
        1   -1    0    0  502    0 -0.00000000000E+00  0.00000000000E+00  0.70441432680E+03  0.70441432680E+03  0.00000000000E+00 0. -1.
       21   -1    0    0  501  502  0.00000000000E+00 -0.00000000000E+00 -0.75560666329E+01  0.75560666329E+01  0.00000000000E+00 0.  1.
       23    1    1    2    0    0  0.27700255893E+02 -0.10570152306E+02  0.64618735596E+03  0.65326287407E+03  0.91188000000E+02 0.  0.
        1    1    1    2  501    0 -0.27700255893E+02  0.10570152306E+02  0.50670904215E+02  0.58707519368E+02  0.00000000000E+00 0. -1.
<scales pt_clust_3="100000.00000" pt_clust_4="29.64848"></scales>
<rwgt>
<wgt id='bias'>   0.1000000E+01</wgt>
</rwgt>
<clustering>
<clus scale="   29.648">  2  4  1 -1</clus>
<clus scale="   29.648">  2  3  1 -1</clus>
</clustering>
</event>
<event>
 3   1  0.8512900E+003  0.9118800E+02  0.7546771E-02  0.1180022E+00
        1   -1    0    0  501    0  0.00000000000E+00  0.00000000000E+00  0.17318722615E+03  0.17318722615E+03  0.00000000000E+00 0. -1.
       -1   -1    0    0    0  501 -0.00000000000E+00 -0.00000000000E+00 -0.12003268845E+02  0.12003268845E+02  0.00000000000E+00 0.  1.
       23    1    1    2    0    0  0.00000000000E+00  0.00000000000E+00  0.16118395731E+03  0.18519049500E+03  0.91188000000E+02 0. -1.
<scales pt_clust_3="100000.00000"></scales>
<rwgt>
<wgt id='bias'>   0.1000000E+01</wgt>
</rwgt>
<clustering>
<clus scale="   91.188">  1  3  2 -1</clus>
</clustering>
</event>
<event>
 4   2  0.8512900E+003  0.1039318E+03  0.7546771E-02  0.1157204E+00
       21   -1    0    0  501  502  0.00000000000E+00  0.00000000000E+00  0.77431825731E+01  0.77431825731E+01  0.00000000000E+00 0.  1.
       -1   -1    0    0    0  501 -0.00000000000E+00 -0.00000000000E+00 -0.77440319965E+03  0.77440319965E+03  0.00000000000E+00 0.  1.
       23    1    1    2    0    0  0.47106688082E+02  0.16356331124E+02 -0.55932294948E+03  0.56889716363E+03  0.91188000000E+02 0.  1.
       -1    1    1    2    0  502 -0.47106688082E+02 -0.16356331124E+02 -0.20733706760E+03  0.21324921859E+03  0.00000000000E+00 0.  1.
<scales pt_clust_3="100000.00000" pt_clust_4="49.86552"></scales>
<rwgt>
<wgt id='bias'>   0.1000000E+01</wgt>
</rwgt>
<clustering>
<clus scale="   49.866">  1  4  2 -1</clus>
<clus scale="   49.866">  1  3  2 -1</clus>
</clustering>
</event>
<event>
 4   2  0.8512900E+003  0.9195658E+02  0.7546771E-02  0.1178530E+00
        1   -1    0    0  502    0 -0.00000000000E+00  0.00000000000E+00  0.24404133083E+04  0.24404133083E+04  0.00000000000E+00 0. -1.
       21   -1    0    0  501  502  0.00000000000E+00 -0.00000000000E+00 -0.12567581003E+01  0.12567581003E+01  0.00000000000E+00 0.  1.
       23    1    1    2    0    0 -0.32273565074E+01 -0.11416856838E+02  0.23400168808E+04  0.23418230109E+04  0.91188000000E+02 0. -1.
        1    1    1    2  501    0  0.32273565074E+01  0.11416856838E+02  0.99139669382E+02  0.99847055517E+02  0.00000000000E+00 0. -1.
<scales pt_clust_3="100000.00000" pt_clust_4="11.86425"></scales>
<rwgt>
<wgt id='bias'>   0.1000000E+01</wgt>
</rwgt>
<clustering>
<clus scale="   11.864">  2  4  1 -1</clus>
<clus scale="   11.864">  2  3  1 -1</clus>
</clustering>
</event>
<event>
 5   3  0.8512900E+003  0.4300825E+03  0.7546771E-02  0.9570706E-01
        2   -1    0    0  503    0 -0.00000000000E+00  0.00000000000E+00  0.15227256890E+05  0.15227256890E+05  0.00000000000E+00 0. -1.
       21   -1    0    0  501  502  0.00000000000E+00 -0.00000000000E+00 -0.11022947802E+03  0.11022947802E+03  0.00000000000E+00 0.  1.
       23    1    1    2    0    0  0.78591224056E+02 -0.62787581357E+02  0.14096169922E+05  0.14096823776E+05  0.91188000000E+02 0. -1.
       21    1    1    2  503  502 -0.12812564380E+01 -0.16420543011E+02 -0.10655982779E+03  0.10782519534E+03  0.00000000000E+00 0.  1.
        2    1    1    2  501    0 -0.77309967618E+02  0.79208124368E+02  0.11274173180E+04  0.11328373965E+04  0.00000000000E+00 0. -1.
<scales pt_clust_3="100000.00000" pt_clust_4="16.47045" pt_clust_5="100000.00000"></scales>
<rwgt>
<wgt id='bias'>   0.1000000E+01</wgt>
</rwgt>
<clustering>
<clus scale="   16.470">  2  4  1 -1</clus>
<clus scale="  101.599">  3  5 -1 -1</clus>
<clus scale="   16.470">  2  3  1 -1</clus>
</clustering>
</event>
<event>
 3   1  0.8512900E+003  0.9118800E+02  0.7546771E-02  0.1180022E+00
       -3   -1    0    0    0  501 -0.00000000000E+00  0.00000000000E+00  0.13399637353E+03  0.13399637353E+03  0.00000000000E+00 0.  1.
        3   -1    0    0  501    0  0.00000000000E+00 -0.00000000000E+00 -0.15513948484E+02  0.15513948484E+02  0.00000000000E+00 0. -1.
       23    1    1    2    0    0  0.00000000000E+00 -0.00000000000E+00  0.11848242505E+03  0.14951032201E+03  0.91188000000E+02 0.  1.
<scales pt_clust_3="100000.00000"></scales>
<rwgt>
<wgt id='bias'>   0.1000000E+01</wgt>
</rwgt>
<clustering>
<clus scale="   91.188">  2  3  1 -1</clus>
</clustering>
</event>
<event>
 5   3  0.8512900E+003  0.9541842E+02  0.7546771E-02  0.1172006E+00
        2   -1    0    0  503    0 -0.00000000000E+00  0.00000000000E+00  0.10540439466E+05  0.10540439466E+05  0.00000000000E+00 0. -1.
       21   -1    0    0  501  502  0.00000000000E+00 -0.00000000000E+00 -0.32673765100E+03  0.32673765100E+03  0.00000000000E+00 0. -1.
       23    1    1    2    0    0  0.10668092386E+02  0.25985186946E+02  0.96490549187E+04  0.96495266782E+04  0.91188000000E+02 0. -1.
       21    1    1    2  503  502 -0.18318794503E+02 -0.33110166354E+02 -0.32537460242E+03  0.32756753998E+03  0.00000000000E+00 0. -1.
        2    1    1    2  501    0  0.76507021167E+01  0.71249794072E+01  0.89002149848E+03  0.89008289857E+03  0.00000000000E+00 0. -1.
<scales pt_clust_3="100000.00000" pt_clust_4="28.09668" pt_clust_5="10.45460"></scales>
<rwgt>
<wgt id='bias'>   0.1000000E+01</wgt>
</rwgt>
<clustering>
<clus scale="   10.455">  2  5  1 -1</clus>
<clus scale="   28.097">  2  4  1 -1</clus>
<clus scale="   10.455">  2  3  1 -1</clus>
</clustering>
</event>
<event>
 4   2  0.8512900E+003  0.1765694E+03  0.7546771E-02  0.1073267E+00
       21   -1    0    0  501  502  0.00000000000E+00  0.00000000000E+00  0.60258346704E+03  0.60258346704E+03  0.00000000000E+00 0. -1.
        1   -1    0    0  502    0 -0.00000000000E+00 -0.00000000000E+00 -0.12934615097E+02  0.12934615097E+02  0.00000000000E+00 0. -1.
       23    1    1    2    0    0 -0.36356996109E+02 -0.53191840473E+02  0.35146493752E+03  0.36877372020E+03  0.91188000000E+02 0. -1.
        1    1    1    2  501    0  0.36356996109E+02  0.53191840473E+02  0.23818391442E+03  0.24674436194E+03  0.00000000000E+00 0. -1.
<scales pt_clust_3="100000.00000" pt_clust_4="100000.00000"></scales>
<rwgt>
<wgt id='bias'>   0.1000000E+01</wgt>
</rwgt>
<clustering>
<clus scale="   64.430">  3  4 -1 -1</clus>
<clus scale="  176.569">  1  3  2 -1</clus>
</clustering>
</event>
<event>
 4   2  0.8512900E+003  0.9188828E+02  0.7546771E-02  0.1178662E+00
        2   -1    0    0  502    0  0.00000000000E+00  0.00000000000E+00  0.37740445071E+02  0.37740445071E+02  0.00000000000E+00 0.  1.
       -2   -1    0    0    0  501 -0.00000000000E+00 -0.00000000000E+00 -0.78740946749E+02  0.78740946749E+02  0.00000000000E+00 0. -1.
       23    1    1    2    0    0  0.28649614890E+01  0.10954339315E+02 -0.22195901406E+02  0.94531026322E+02  0.91188000000E+02 0.  1.
       21    1    1    2  502  501 -0.28649614890E+01 -0.10954339315E+02 -0.18804600272E+02  0.21950365499E+02  0.00000000000E+00 0. -1.
<scales pt_clust_3="100000.00000" pt_clust_4="11.32279"></scales>
<rwgt>
<wgt id='bias'>   0.1000000E+01</wgt>
</rwgt>
<clustering>
<clus scale="   11.323">  2  4  1 -1</clus>
<clus scale="   91.888">  1  3  2 -1</clus>
</clustering>
</event>
<event>
 5   3  0.8512900E+003  0.1028137E+03  0.7546771E-02  0.1159055E+00
       -1   -1    0    0    0  501 -0.00000000000E+00  0.00000000000E+00  0.70181226560E+04  0.70181226560E+04  0.00000000000E+00 0.  1.
       21   -1    0    0  503  502  0.00000000000E+00 -0.00000000000E+00 -0.12799779525E+03  0.12799779525E+03  0.00000000000E+00 0.  1.
       23    1    1    2    0    0 -0.56480671379E+02  0.56684709900E+01  0.46341430232E+04  0.46353876870E+04  0.91188000000E+02 0. -1.
       21    1    1    2  503  501  0.16667773671E+02 -0.31103072795E+02 -0.12469260867E+03  0.12958959246E+03  0.00000000000E+00 0.  1.
       -1    1    1    2    0  502  0.39812897708E+02  0.25434601805E+02  0.23806744462E+04  0.23811431718E+04  0.00000000000E+00 0.  1.
<scales pt_clust_3="100000.00000" pt_clust_4="35.28762" pt_clust_5="47.49124"></scales>
<rwgt>
<wgt id='bias'>   0.1000000E+01</wgt>
</rwgt>
<clustering>
<clus scale="   35.288">  2  4  1 -1</clus>
<clus scale="   47.491">  2  5  1 -1</clus>
<clus scale="   35.288">  2  3  1 -1</clus>
</clustering>
</event>
<event>
 3   1  0.8512900E+003  0.9118800E+02  0.7546771E-02  0.1180022E+00
        2   -1    0    0  501    0  0.00000000000E+00  0.00000000000E+00  0.13858410959E+05  0.13858410959E+05  0.00000000000E+00 0.  1.
       -2   -1    0    0    0  501 -0.00000000000E+00 -0.00000000000E+00 -0.15000369394E+00  0.15000369394E+00  0.00000000000E+00 0. -1.
       23    1    1    2    0    0  0.00000000000E+00  0.00000000000E+00  0.13858260956E+05  0.13858560963E+05  0.91188000000E+02 0.  1.
<scales pt_clust_3="100000.00000"></scales>
<rwgt>
<wgt id='bias'>   0.1000000E+01</wgt>
</rwgt>
<clustering>
<clus scale="   91.188">  1  3  2 -1</clus>
</clustering>
</event>
<event>
 3   1  0.8512900E+003  0.9118800E+02  0.7546771E-02  0.1180022E+00
       -2   -1    0    0    0  501 -0.00000000000E+00  0.00000000000E+00  0.55575271663E+01  0.55575271663E+01  0.00000000000E+00 0.  1.
        2   -1    0    0  501    0  0.00000000000E+00 -0.00000000000E+00 -0.37405356264E+03  0.37405356264E+03  0.00000000000E+00 0. -1.
       23    1    1    2    0    0  0.00000000000E+00 -0.00000000000E+00 -0.36849603547E+03  0.37961108980E+03  0.91188000000E+02 0.  1.
<scales pt_clust_3="100000.00000"></scales>
<rwgt>
<wgt id='bias'>   0.1000000E+01</wgt>
</rwgt>
<clustering>
<clus scale="   91.188">  2  3  1 -1</clus>
</clustering>
</event>
<event>
 3   1  0.8512900E+003  0.9118800E+02  0.7546771E-02  0.1180022E+00
        2   -1    0    0  501    0  0.00000000000E+00  0.00000000000E+00  0.15040485056E+04  0.15040485056E+04  0.00000000000E+00 0. -1.
       -2   -1    0    0    0  501 -0.00000000000E+00 -0.00000000000E+00 -0.13821448100E+01  0.13821448100E+01  0.00000000000E+00 0.  1.
       23    1    1    2    0    0  0.00000000000E+00  0.00000000000E+00  0.15026663607E+04  0.15054306504E+04  0.91188000000E+02 0. -1.
<scales pt_clust_3="100000.00000"></scales>
<rwgt>
<wgt id='bias'>   0.1000000E+01</wgt>
</rwgt>
<clustering>
<clus scale="   91.188">  1  3  2 -1</clus>
</clustering>
</event>
<event>
 3   1  0.8512900E+003  0.9118800E+02  0.7546771E-02  0.1180022E+00
        2   -1    0    0  501    0  0.00000000000E+00  0.00000000000E+00  0.31797874656E+05  0.31797874656E+05  0.00000000000E+00 0. -1.
       -2   -1    0    0    0  501 -0.00000000000E+00 -0.00000000000E+00 -0.65375842207E-01  0.65375842207E-01  0.00000000000E+00 0.  1.
       23    1    1    2    0    0  0.00000000000E+00  0.00000000000E+00  0.31797809281E+05  0.31797940032E+05  0.91188000000E+02 0. -1.
<scales pt_clust_3="100000.00000"></scales>
<rwgt>
<wgt id='bias'>   0.1000000E+01</wgt>
</rwgt>
<clustering>
<clus scale="   91.188">  1  3  2 -1</clus>
</clustering>
</event>
<event>
 3   1  0.8512900E+003  0.9118800E+02  0.7546771E-02  0.1180022E+00
       -5   -1    0    0    0  501 -0.00000000000E+00  0.00000000000E+00  0.15392359802E+04  0.15392359802E+04  0.00000000000E+00 0.  1.
        5   -1    0    0  501    0  0.00000000000E+00 -0.00000000000E+00 -0.13505484947E+01  0.13505484947E+01  0.00000000000E+00 0. -1.
       23    1    1    2    0    0  0.00000000000E+00 -0.00000000000E+00  0.15378854317E+04  0.15405865287E+04  0.91188000000E+02 0.  1.
<scales pt_clust_3="100000.00000"></scales>
<rwgt>
<wgt id='bias'>   0.1000000E+01</wgt>
</rwgt>
<clustering>
<clus scale="   91.188">  2  3  1 -1</clus>
</clustering>
</event>
<event>
 4   2  0.8512900E+003  0.9236553E+02  0.7546771E-02  0.1177742E+00
       -1   -1    0    0    0  501 -0.00000000000E+00  0.00000000000E+00  0.14019784610E+00  0.14019784610E+00  0.00000000000E+00 0.  1.
        1   -1    0    0  502    0  0.00000000000E+00 -0.00000000000E+00 -0.20459866136E+05  0.20459866136E+05  0.00000000000E+00 0. -1.
       23    1    1    2    0    0 -0.33736373087E+01 -0.14309408590E+02 -0.17854957695E+05  0.17855196602E+05  0.91188000000E+02 0.  0.
       21    1    1    2  502  501  0.33736373087E+01  0.14309408590E+02 -0.26047682433E+04  0.26048097324E+04  0.00000000000E+00 0. -1.
<scales pt_clust_3="100000.00000" pt_clust_4="14.70172"></scales>
<rwgt>
<wgt id='bias'>   0.1000000E+01</wgt>
</rwgt>
<clustering>
<clus scale="   14.702">  1  4  2 -1</clus>
<clus scale="   92.366">  2  3  1 -1</clus>
</clustering>
</event>
<event>
 4   2  0.8512900E+003  0.9181624E+02  0.7546771E-02  0.1178801E+00
       21   -1    0    0  501  502  0.00000000000E+00  0.00000000000E+00  0.10860116454E+03  0.10860116454E+03  0.00000000000E+00 0. -1.
        2   -1    0    0  502    0 -0.00000000000E+00 -0.00000000000E+00 -0.10601318785E+03  0.10601318785E+03  0.00000000000E+00 0. -1.
       23    1    1    2    0    0  0.66321273213E+01 -0.84252564898E+01 -0.85747895890E+02  0.12563010409E+03  0.91188000000E+02 0. -1.
        2    1    1    2  501    0 -0.66321273213E+01  0.84252564898E+01  0.88335872584E+02  0.88984248297E+02  0.00000000000E+00 0. -1.
<scales pt_clust_3="100000.00000" pt_clust_4="10.72241"></scales>
<rwgt>
<wgt id='bias'>   0.1000000E+01</wgt>
</rwgt>
<clustering>
<clus scale="   10.722">  1  4  2 -1</clus>
<clus scale="   10.722">  1  3  2 -1</clus>
</clustering>
</event>
<event>
 3   1  0.8512900E+003  0.9118800E+02  0.7546771E-02  0.1180022E+00
        2   -1    0    0  501    0  0.00000000000E+00  0.00000000000E+00  0.45181184442E+03  0.45181184442E+03  0.00000000000E+00 0. -1.
       -2   -1    0    0    0  501 -0.00000000000E+00 -0.00000000000E+00 -0.46010587409E+01  0.46010587409E+01  0.00000000000E+00 0.  1.
       23    1    1    2    0    0  0.00000000000E+00  0.00000000000E+00  0.44721078568E+03  0.45641290316E+03  0.91188000000E+02 0. -1.
<scales pt_clust_3="100000.00000"></scales>
<rwgt>
<wgt id='bias'>   0.1000000E+01</wgt>
</rwgt>
<clustering>
<clus scale="   91.188">  1  3  2 -1</clus>
</clustering>
</event>
<event>
 3   1  0.8512900E+003  0.9118800E+02  0.7546771E-02  0.1180022E+00
       -5   -1    0    0    0  501 -0.00000000000E+00  0.00000000000E+00  0.51933900587E+02  0.51933900587E+02  0.00000000000E+00 0.  1.
        5   -1    0    0  501    0  0.00000000000E+00 -0.00000000000E+00 -0.40028051283E+02  0.40028051283E+02  0.00000000000E+00 0. -1.
       23    1    1    2    0    0  0.00000000000E+00 -0.00000000000E+00  0.11905849304E+02  0.91961951870E+02  0.91188000000E+02 0.  1.
<scales pt_clust_3="100000.00000"></scales>
<rwgt>
<wgt id='bias'>   0.1000000E+01</wgt>
</rwgt>
<clustering>
<clus scale="   91.188">  2  3  1 -1</clus>
</clustering>
</event>
<event>
 5   3  0.8512900E+003  0.3558243E+02  0.7546771E-02  0.1167545E+00
        1   -1    0    0  502    0  0.00000000000E+00  0.00000000000E+00  0.32030216693E+01  0.32030216693E+01  0.00000000000E+00 0. -1.
       -1   -1    0    0    0  501 -0.00000000000E+00 -0.00000000000E+00 -0.30186824850E+04  0.30186824850E+04  0.00000000000E+00 0.  1.
       23    1    1    2    0    0 -0.30796387149E+01 -0.27167809225E+02 -0.12004092059E+04  0.12041781791E+04  0.91188000000E+02 0. -1.
       21    1    1    2  502  503  0.23504078610E+01  0.37359806721E+02 -0.26783045463E+03  0.27043378488E+03  0.00000000000E+00 0. -1.
       21    1    1    2  503  501  0.72923085392E+00 -0.10191997496E+02 -0.15472398028E+04  0.15472735427E+04  0.00000000000E+00 0.  1.
<scales pt_clust_3="100000.00000" pt_clust_4="35.58243" pt_clust_5="10.21805"></scales>
<rwgt>
<wgt id='bias'>   0.1000000E+01</wgt>
</rwgt>
<clustering>
<clus scale="   10.218">  2  5  1 -1</clus>
<clus scale="   35.582">  1  4  2 -1</clus>
<clus scale="   35.582">  1  3  2 -1</clus>
</clustering>
</event>
<event>
 5   3  0.8512900E+003  0.2236855E+03  0.7546771E-02  0.1039680E+00
       21   -1    0    0  501  502  0.00000000000E+00  0.00000000000E+00  0.12490478067E+02  0.12490478067E+02  0.00000000000E+00 0. -1.
        2   -1    0    0  503    0 -0.00000000000E+00 -0.00000000000E+00 -0.13259044756E+04  0.13259044756E+04  0.00000000000E+00 0. -1.
       23    1    1    2    0    0  0.47290583486E+02 -0.62203890539E+02 -0.79094633389E+03  0.80001067351E+03  0.91188000000E+02 0. -1.
       21    1    1    2  503  502 -0.12496437706E+02 -0.14326756119E+02 -0.29936285919E+03  0.29996589533E+03  0.00000000000E+00 0.  1.
        2    1    1    2  501    0 -0.34794145780E+02  0.76530646658E+02 -0.22310480449E+03  0.23841838487E+03  0.00000000000E+00 0. -1.
<scales pt_clust_3="100000.00000" pt_clust_4="19.01097" pt_clust_5="100000.00000"></scales>
<rwgt>
<wgt id='bias'>   0.1000000E+01</wgt>
</rwgt>
<clustering>
<clus scale="   19.011">  2  4  1 -1</clus>
<clus scale="   82.391">  3  5 -1 -1</clus>
<clus scale="  223.685">  1  3  2 -1</clus>
</clustering>
</event>
<event>
 3   1  0.8512900E+003  0.9118800E+02  0.7546771E-02  0.1180022E+00
       -5   -1    0    0    0  501 -0.00000000000E+00  0.00000000000E+00  0.41407566720E+01  0.41407566720E+01  0.00000000000E+00 0.  1.
        5   -1    0    0  501    0  0.00000000000E+00 -0.00000000000E+00 -0.50203694655E+03  0.50203694655E+03  0.00000000000E+00 0. -1.
       23    1    1    2    0    0  0.00000000000E+00 -0.00000000000E+00 -0.49789618988E+03  0.50617770322E+03  0.91188000000E+02 0.  1.
<scales pt_clust_3="100000.00000"></scales>
<rwgt>
<wgt id='bias'>   0.1000000E+01</wgt>
</rwgt>
<clustering>
<clus scale="   91.188">  2  3  1 -1</clus>
</clustering>
</event>
<event>
 4   2  0.8512900E+003  0.9174262E+02  0.7546771E-02  0.1178944E+00
       -4   -1    0    0    0  501 -0.00000000000E+00  0.00000000000E+00  0.83542769001E+02  0.83542769001E+02  0.00000000000E+00 0.  1.
       21   -1    0    0  501  502  0.00000000000E+00 -0.00000000000E+00 -0.35090719528E+02  0.35090719528E+02  0.00000000000E+00 0. -1.
       23    1    1    2    0    0 -0.98137895670E+01  0.22684382646E+01  0.54669692057E+02  0.10679645524E+03  0.91188000000E+02 0.  0.
       -4    1    1    2    0  502  0.98137895670E+01 -0.22684382646E+01 -0.62176425836E+01  0.11837033291E+02  0.00000000000E+00 0.  1.
<scales pt_clust_3="100000.00000" pt_clust_4="10.07255"></scales>
<rwgt>
<wgt id='bias'>   0.1000000E+01</wgt>
</rwgt>
<clustering>
<clus scale="   10.073">  2  4  1 -1</clus>
<clus scale="   10.073">  2  3  1 -1</clus>
</clustering>
</event>
<event>
 4   2  0.8512900E+003  0.9318637E+02  0.7546771E-02  0.1176175E+00
        1   -1    0    0  502    0 -0.00000000000E+00  0.00000000000E+00  0.49929276993E+03  0.49929276993E+03  0.00000000000E+00 0. -1.
       21   -1    0    0  501  502  0.00000000000E+00 -0.00000000000E+00 -0.69047419746E+01  0.69047419746E+01  0.00000000000E+00 0.  1.
       23    1    1    2    0    0 -0.15319207550E+02 -0.11565900098E+02  0.33763569790E+03  0.35025928111E+03  0.91188000000E+02 0.  1.
        1    1    1    2  501    0  0.15319207550E+02  0.11565900098E+02  0.15475233005E+03  0.15593823079E+03  0.00000000000E+00 0. -1.
<scales pt_clust_3="100000.00000" pt_clust_4="19.19501"></scales>
<rwgt>
<wgt id='bias'>   0.1000000E+01</wgt>
</rwgt>
<clustering>
<clus scale="   19.195">  2  4  1 -1</clus>
<clus scale="   19.195">  2  3  1 -1</clus>
</clustering>
</event>
<event>
 4   2  0.8512900E+003  0.9895416E+02  0.7546771E-02  0.1165656E+00
        4   -1    0    0  502    0 -0.00000000000E+00  0.00000000000E+00  0.83067139837E+03  0.83067139837E+03  0.00000000000E+00 0. -1.
       21   -1    0    0  501  502  0.00000000000E+00 -0.00000000000E+00 -0.76391531725E+01  0.76391531725E+01  0.00000000000E+00 0. -1.
       23    1    1    2    0    0  0.17412192762E+02 -0.34256234565E+02  0.34998712207E+03  0.36370717758E+03  0.91188000000E+02 0. -1.
        4    1    1    2  501    0 -0.17412192762E+02  0.34256234565E+02  0.47304512312E+03  0.47460337396E+03  0.00000000000E+00 0. -1.
<scales pt_clust_3="100000.00000" pt_clust_4="38.42754"></scales>
<rwgt>
<wgt id='bias'>   0.1000000E+01</wgt>
</rwgt>
<clustering>
<clus scale="   38.428">  2  4  1 -1</clus>
<clus scale="   38.428">  2  3  1 -1</clus>
</clustering>
</event>
<event>
 5   3  0.8512900E+003  0.1589351E+03  0.7546771E-02  0.1088934E+00
       21   -1    0    0  501  502  0.00000000000E+00  0.00000000000E+00  0.11950562936E+01  0.11950562936E+01  0.00000000000E+00 0. -1.
       21   -1    0    0  502  503 -0.00000000000E+00 -0.00000000000E+00 -0.72605289829E+04  0.72605289829E+04  0.00000000000E+00 0. -1.
       23    1    1    2    0    0  0.21893530419E+02  0.77672461584E+01 -0.52661195801E+04  0.52669602562E+04  0.91188000000E+02 0. -1.
        2    1    1    2  501    0 -0.11294824463E+02 -0.14522248519E+02 -0.11151058465E+03  0.11301804834E+03  0.00000000000E+00 0. -1.
       -2    1    1    2    0  503 -0.10598705956E+02  0.67550023607E+01 -0.18817037618E+04  0.18817457347E+04  0.00000000000E+00 0.  1.
<scales pt_clust_3="100000.00000" pt_clust_4="100000.00000" pt_clust_5="12.56832"></scales>
<rwgt>
<wgt id='bias'>   0.1000000E+01</wgt>
</rwgt>
<clustering>
<clus scale="   12.568">  2  5  1 -1</clus>
<clus scale="   18.424">  3  4 -1 -1</clus>
<clus scale="  158.935">  1  3  2 -1</clus>
</clustering>
</event>
<event>
 5   3  0.8512900E+003  0.1293666E+03  0.7546771E-02  0.1120959E+00
       21   -1    0    0  503  502  0.00000000000E+00  0.00000000000E+00  0.16217555931E+02  0.16217555931E+02  0.00000000000E+00 0.  1.
       21   -1    0    0  501  503 -0.00000000000E+00 -0.00000000000E+00 -0.39568905397E+03  0.39568905397E+03  0.00000000000E+00 0.  1.
       23    1    1    2    0    0  0.25164063023E+02 -0.24343140177E+02 -0.33332018875E+03  0.34733761402E+03  0.91188000000E+02 0.  1.
        5    1    1    2  501    0 -0.63031249395E+01  0.24029405989E+02 -0.34081393089E+02  0.42174436464E+02  0.00000000000E+00 0. -1.
       -5    1    1    2    0  502 -0.18860938083E+02  0.31373418786E+00 -0.12069916208E+02  0.22394559424E+02  0.00000000000E+00 0.  1.
<scales pt_clust_3="100000.00000" pt_clust_4="100000.00000" pt_clust_5="18.86355"></scales>
<rwgt>
<wgt id='bias'>   0.1000000E+01</wgt>
</rwgt>
<clustering>
<clus scale="   18.864">  1  5  2 -1</clus>
<clus scale="   27.520">  3  4 -1 -1</clus>
<clus scale="   18.864">  1  3  2 -1</clus>
</clustering>
</event>
<event>
 5   3  0.8512900E+003  0.9801090E+02  0.7546771E-02  0.1167320E+00
       -2   -1    0    0    0  501 -0.00000000000E+00  0.00000000000E+00  0.34715044592E+01  0.34715044592E+01  0.00000000000E+00 0.  1.
        2   -1    0    0  503    0  0.00000000000E+00 -0.00000000000E+00 -0.16912339222E+04  0.16912339222E+04  0.00000000000E+00 0. -1.
       23    1    1    2    0    0 -0.83307153648E+00 -0.43709542498E+02 -0.10572366052E+04  0.10620620080E+04  0.91188000000E+02 0.  1.
       21    1    1    2  502  501  0.13475151272E+02  0.30931064411E+02 -0.41562318901E+03  0.41699034244E+03  0.00000000000E+00 0. -1.
       21    1    1    2  503  502 -0.12642079735E+02  0.12778478087E+02 -0.21490262353E+03  0.21565307622E+03  0.00000000000E+00 0. -1.
<scales pt_clust_3="100000.00000" pt_clust_4="35.92889" pt_clust_5="17.97531"></scales>
<rwgt>
<wgt id='bias'>   0.1000000E+01</wgt>
</rwgt>
<clustering>
<clus scale="   17.975">  2  5  1 -1</clus>
<clus scale="   35.929">  2  4  1 -1</clus>
<clus scale="   17.975">  2  3  1 -1</clus>
</clustering>
</event>
<event>
 3   1  0.8512900E+003  0.9118800E+02  0.7546771E-02  0.1180022E+00
       -2   -1    0    0    0  501 -0.00000000000E+00  0.00000000000E+00  0.46820619366E+03  0.46820619366E+03  0.00000000000E+00 0.  1.
        2   -1    0    0  501    0  0.00000000000E+00 -0.00000000000E+00 -0.44399515943E+01  0.44399515943E+01  0.00000000000E+00 0. -1.
       23    1    1    2    0    0  0.00000000000E+00 -0.00000000000E+00  0.46376624207E+03  0.47264614526E+03  0.91188000000E+02 0.  1.
<scales pt_clust_3="100000.00000"></scales>
<rwgt>
<wgt id='bias'>   0.1000000E+01</wgt>
</rwgt>
<clustering>
<clus scale="   91.188">  2  3  1 -1</clus>
</clustering>
</event>
<event>
 4   2  0.8512900E+003  0.1460971E+03  0.7546771E-02  0.1101813E+00
        3   -1    0    0  502    0 -0.00000000000E+00  0.00000000000E+00  0.34040811054E+04  0.34040811054E+04  0.00000000000E+00 0. -1.
       21   -1    0    0  501  502  0.00000000000E+00 -0.00000000000E+00 -0.52302276909E+01  0.52302276909E+01  0.00000000000E+00 0. -1.
       23    1    1    2    0    0 -0.80284598202E+02  0.81138724894E+02  0.22725239143E+04  0.22772152515E+04  0.91188000000E+02 0. -1.
        3    1    1    2  501    0  0.80284598202E+02 -0.81138724894E+02  0.11263269634E+04  0.11320960816E+04  0.00000000000E+00 0. -1.
<scales pt_clust_3="100000.00000" pt_clust_4="114.14512"></scales>
<rwgt>
<wgt id='bias'>   0.1000000E+01</wgt>
</rwgt>
<clustering>
<clus scale="  114.145">  2  4  1 -1</clus>
<clus scale="  114.145">  2  3  1 -1</clus>
</clustering>
</event>
<event>
 3   1  0.8512900E+003  0.9118800E+02  0.7546771E-02  0.1180022E+00
       -4   -1    0    0    0  501 -0.00000000000E+00  0.00000000000E+00  0.69024925468E+04  0.69024925468E+04  0.00000000000E+00 0.  1.
        4   -1    0    0  501    0  0.00000000000E+00 -0.00000000000E+00 -0.30116842893E+00  0.30116842893E+00  0.00000000000E+00 0. -1.
       23    1    1    2    0    0  0.00000000000E+00 -0.00000000000E+00  0.69021913784E+04  0.69027937152E+04  0.91188000000E+02 0.  1.
<scales pt_clust_3="100000.00000"></scales>
<rwgt>
<wgt id='bias'>   0.1000000E+01</wgt>
</rwgt>
<clustering>
<clus scale="   91.188">  2  3  1 -1</clus>
</clustering>
</event>
<event>
 5   3  0.8512900E+003  0.1122775E+03  0.7546771E-02  0.1144151E+00
        1   -1    0    0  502    0 -0.00000000000E+00  0.00000000000E+00  0.51123395946E+04  0.51123395946E+04  0.00000000000E+00 0. -1.
       21   -1    0    0  503  502  0.00000000000E+00 -0.00000000000E+00 -0.66304268236E+01  0.66304268236E+01  0.00000000000E+00 0. -1.
       23    1    1    2    0    0  0.28758613109E+02 -0.61639455546E+02  0.47045673812E+04  0.47059426235E+04  0.91188000000E+02 0. -1.
       21    1    1    2  503  501 -0.60207010263E+01  0.84114835064E+01  0.30992340926E+01  0.10798478948E+02  0.00000000000E+00 0. -1.
        1    1    1    2  501    0 -0.22737912083E+02  0.53227972040E+02  0.39804255253E+03  0.40222891900E+03  0.00000000000E+00 0. -1.
<scales pt_clust_3="100000.00000" pt_clust_4="10.34417" pt_clust_5="65.50557"></scales>
<rwgt>
<wgt id='bias'>   0.1000000E+01</wgt>
</rwgt>
<clustering>
<clus scale="   10.344">  2  4  1 -1</clus>
<clus scale="   65.506">  2  5  1 -1</clus>
<clus scale="   10.344">  2  3  1 -1</clus>
</clustering>
</event>
<event>
 3   1  0.8512900E+003  0.9118800E+02  0.7546771E-02  0.1180022E+00
       -2   -1    0    0    0  501 -0.00000000000E+00  0.00000000000E+00  0.53674374918E+04  0.53674374918E+04  0.00000000000E+00 0.  1.
        2   -1    0    0  501    0  0.00000000000E+00 -0.00000000000E+00 -0.38730080028E+00  0.38730080028E+00  0.00000000000E+00 0. -1.
       23    1    1    2    0    0  0.00000000000E+00 -0.00000000000E+00  0.53670501910E+04  0.53678247926E+04  0.91188000000E+02 0.  1.
<scales pt_clust_3="100000.00000"></scales>
<rwgt>
<wgt id='bias'>   0.1000000E+01</wgt>
</rwgt>
<clustering>
<clus scale="   91.188">  2  3  1 -1</clus>
</clustering>
</event>
<event>
 4   2  0.8512900E+003  0.1054238E+03  0.7546771E-02  0.1154772E+00
       -1   -1    0    0    0  501 -0.00000000000E+00  0.00000000000E+00  0.18410942684E+02  0.18410942684E+02  0.00000000000E+00 0.  1.
        1   -1    0    0  502    0  0.00000000000E+00 -0.00000000000E+00 -0.45417676112E+03  0.45417676112E+03  0.00000000000E+00 0. -1.
       23    1    1    2    0    0 -0.51916703507E+02 -0.10177305201E+02 -0.38533935779E+03  0.39950043010E+03  0.91188000000E+02 0. -1.
       21    1    1    2  502  501  0.51916703507E+02  0.10177305201E+02 -0.50426460645E+02  0.73087273703E+02  0.00000000000E+00 0.  1.
<scales pt_clust_3="100000.00000" pt_clust_4="52.90484"></scales>
<rwgt>
<wgt id='bias'>   0.1000000E+01</wgt>
</rwgt>
<clustering>
<clus scale="   52.905">  1  4  2 -1</clus>
<clus scale="  105.424">  2  3  1 -1</clus>
</clustering>
</event>
<event>
 3   1  0.8512900E+003  0.9118800E+02  0.7546771E-02  0.1180022E+00
       -1   -1    0    0    0  501 -0.00000000000E+00  0.00000000000E+00  0.37349617308E+00  0.37349617308E+00  0.00000000000E+00 0.  1.
        1   -1    0    0  501    0  0.00000000000E+00 -0.00000000000E+00 -0.55658209798E+04  0.55658209798E+04  0.00000000000E+00 0. -1.
       23    1    1    2    0    0  0.00000000000E+00 -0.00000000000E+00 -0.55654474837E+04  0.55661944760E+04  0.91188000000E+02 0.  1.
<scales pt_clust_3="100000.00000"></scales>
<rwgt>
<wgt id='bias'>   0.1000000E+01</wgt>
</rwgt>
<clustering>
<clus scale="   91.188">  2  3  1 -1</clus>
</clustering>
</event>
<event>
 4   2  0.8512900E+003  0.1510240E+03  0.7546771E-02  0.1096706E+00
       21   -1    0    0  501  502  0.00000000000E+00  0.00000000000E+00  0.18819576803E+01  0.18819576803E+01  0.00000000000E+00 0. -1.
        2   -1    0    0  502    0 -0.00000000000E+00 -0.00000000000E+00 -0.11266015875E+05  0.11266015875E+05  0.00000000000E+00 0.  1.
       23    1    1    2    0    0  0.60346041396E+02  0.10416975625E+03 -0.41532589727E+04  0.41560038894E+04  0.91188000000E+02 0. -1.
        2    1    1    2  501    0 -0.60346041396E+02 -0.10416975625E+03 -0.71108749451E+04  0.71118939437E+04  0.00000000000E+00 0.  1.
<scales pt_clust_3="100000.00000" pt_clust_4="120.38687"></scales>
<rwgt>
<wgt id='bias'>   0.1000000E+01</wgt>
</rwgt>
<clustering>
<clus scale="  120.387">  1  4  2 -1</clus>
<clus scale="  120.387">  1  3  2 -1</clus>
</clustering>
</event>
<event>
 3   1  0.8512900E+003  0.9118800E+02  0.7546771E-02  0.1180022E+00
        2   -1    0    0  501    0  0.00000000000E+00  0.00000000000E+00  0.28339944378E+04  0.28339944378E+04  0.00000000000E+00 0. -1.
       -2   -1    0    0    0  501 -0.00000000000E+00 -0.00000000000E+00 -0.73352749331E+00  0.73352749331E+00  0.00000000000E+00 0.  1.
       23    1    1    2    0    0  0.00000000000E+00  0.00000000000E+00  0.28332609103E+04  0.28347279653E+04  0.91188000000E+02 0. -1.
<scales pt_clust_3="100000.00000"></scales>
<rwgt>
<wgt id='bias'>   0.1000000E+01</wgt>
</rwgt>
<clustering>
<clus scale="   91.188">  1  3  2 -1</clus>
</clustering>
</event>
<event>
 5   3  0.8512900E+003  0.9380264E+02  0.7546771E-02  0.1175011E+00
        1   -1    0    0  502    0 -0.00000000000E+00  0.00000000000E+00  0.27038603834E+02  0.27038603834E+02  0.00000000000E+00 0. -1.
       21   -1    0    0  503  502  0.00000000000E+00 -0.00000000000E+00 -0.37196415374E+04  0.37196415374E+04  0.00000000000E+00 0. -1.
       23    1    1    2    0    0  0.61423540177E+01 -0.22128740757E+02 -0.55511135035E+02  0.10919774328E+03  0.91188000000E+02 0. -1.
       21    1    1    2  503  501 -0.15579134623E+02  0.43720962408E+01 -0.30559011887E+04  0.30559440276E+04  0.00000000000E+00 0. -1.
        1    1    1    2  501    0  0.94367806053E+01  0.17756644516E+02 -0.58119060982E+03  0.58153837035E+03  0.00000000000E+00 0. -1.
<scales pt_clust_3="100000.00000" pt_clust_4="16.18100" pt_clust_5="21.99282"></scales>
<rwgt>
<wgt id='bias'>   0.1000000E+01</wgt>
</rwgt>
<clustering>
<clus scale="   16.181">  2  4  1 -1</clus>
<clus scale="   21.993">  2  5  1 -1</clus>
<clus scale="   16.181">  2  3  1 -1</clus>
</clustering>
</event>
<event>
 3   1  0.8512900E+003  0.9118800E+02  0.7546771E-02  0.1180022E+00
       -1   -1    0    0    0  501 -0.00000000000E+00  0.00000000000E+00  0.16505770171E+00  0.16505770171E+00  0.00000000000E+00 0.  1.
        1   -1    0    0  501    0  0.00000000000E+00 -0.00000000000E+00 -0.12594461297E+05  0.12594461297E+05  0.00000000000E+00 0. -1.
       23    1    1    2    0    0  0.00000000000E+00 -0.00000000000E+00 -0.12594296240E+05  0.12594626355E+05  0.91188000000E+02 0.  1.
<scales pt_clust_3="100000.00000"></scales>
<rwgt>
<wgt id='bias'>   0.1000000E+01</wgt>
</rwgt>
<clustering>
<clus scale="   91.188">  2  3  1 -1</clus>
</clustering>
</event>
<event>
 3   1  0.8512900E+003  0.9118800E+02  0.7546771E-02  0.1180022E+00
       -2   -1    0    0    0  501 -0.00000000000E+00  0.00000000000E+00  0.13706884954E+04  0.13706884954E+04  0.00000000000E+00 0.  1.
        2   -1    0    0  501    0  0.00000000000E+00 -0.00000000000E+00 -0.15166194529E+01  0.15166194529E+01  0.00000000000E+00 0. -1.
       23    1    1    2    0    0  0.00000000000E+00 -0.00000000000E+00  0.13691718759E+04  0.13722051148E+04  0.91188000000E+02 0.  1.
<scales pt_clust_3="100000.00000"></scales>
<rwgt>
<wgt id='bias'>   0.1000000E+01</wgt>
</rwgt>
<clustering>
<clus scale="   91.188">  2  3  1 -1</clus>
</clustering>
</event>
<event>
 4   2  0.8512900E+003  0.9200398E+02  0.7546771E-02  0.1178438E+00
       -4   -1    0    0    0  501 -0.00000000000E+00  0.00000000000E+00  0.14491669671E+04  0.14491669671E+04  0.00000000000E+00 0.  1.
        4   -1    0    0  502    0  0.00000000000E+00 -0.00000000000E+00 -0.18745870749E+01  0.18745870749E+01  0.00000000000E+00 0. -1.
       23    1    1    2    0    0  0.32260339672E+01 -0.11792952873E+02  0.12704334402E+04  0.12737605185E+04  0.91188000000E+02 0.  0.
       21    1    1    2  502  501 -0.32260339672E+01  0.11792952873E+02  0.17685893983E+03  0.17728103573E+03  0.00000000000E+00 0.  1.
<scales pt_clust_3="100000.00000" pt_clust_4="12.22624"></scales>
<rwgt>
<wgt id='bias'>   0.1000000E+01</wgt>
</rwgt>
<clustering>
<clus scale="   12.226">  1  4  2 -1</clus>
<clus scale="   92.004">  2  3  1 -1</clus>
</clustering>
</event>
<event>
 4   2  0.8512900E+003  0.9241169E+02  0.7546771E-02  0.1177654E+00
       21   -1    0    0  501  502  0.00000000000E+00  0.00000000000E+00  0.22758629523E+04  0.22758629523E+04  0.00000000000E+00 0. -1.
       -3   -1    0    0    0  501 -0.00000000000E+00 -0.00000000000E+00 -0.12818671936E+01  0.12818671936E+01  0.00000000000E+00 0.  1.
       23    1    1    2    0    0 -0.79865982668E+01 -0.12683970092E+02  0.20329362047E+04  0.20350355113E+04  0.91188000000E+02 0. -1.
       -3    1    1    2    0  502  0.79865982668E+01  0.12683970092E+02  0.24164488041E+03  0.24210930812E+03  0.00000000000E+00 0.  1.
<scales pt_clust_3="100000.00000" pt_clust_4="14.98897"></scales>
<rwgt>
<wgt id='bias'>   0.1000000E+01</wgt>
</rwgt>
<clustering>
<clus scale="   14.989">  1  4  2 -1</clus>
<clus scale="   14.989">  1  3  2 -1</clus>
</clustering>
</event>
<event>
 3   1  0.8512900E+003  0.9118800E+02  0.7546771E-02  0.1180022E+00
       -1   -1    0    0    0  501 -0.00000000000E+00  0.00000000000E+00  0.39191048274E+01  0.39191048274E+01  0.00000000000E+00 0.  1.
        1   -1    0    0  501    0  0.00000000000E+00 -0.00000000000E+00 -0.53043052625E+03  0.53043052625E+03  0.00000000000E+00 0. -1.
       23    1    1    2    0    0  0.00000000000E+00 -0.00000000000E+00 -0.52651142142E+03  0.53434963108E+03  0.91188000000E+02 0.  1.
<scales pt_clust_3="100000.00000"></scales>
<rwgt>
<wgt id='bias'>   0.1000000E+01</wgt>
</rwgt>
<clustering>
<clus scale="   91.188">  2  3  1 -1</clus>
</clustering>
</event>
<event>
 4   2  0.8512900E+003  0.1579449E+03  0.7546771E-02  0.1089879E+00
       -3   -1    0    0    0  501 -0.00000000000E+00  0.00000000000E+00  0.15550248142E+02  0.15550248142E+02  0.00000000000E+00 0.  1.
        3   -1    0    0  502    0  0.00000000000E+00 -0.00000000000E+00 -0.13264899684E+04  0.13264899684E+04  0.00000000000E+00 0. -1.
       23    1    1    2    0    0 -0.12742332614E+03 -0.19865241753E+02 -0.68922839592E+03  0.70709431122E+03  0.91188000000E+02 0.  1.
       21    1    1    2  502  501  0.12742332614E+03  0.19865241753E+02 -0.62171132439E+03  0.63494590537E+03  0.00000000000E+00 0. -1.
<scales pt_clust_3="100000.00000" pt_clust_4="128.96252"></scales>
<rwgt>
<wgt id='bias'>   0.1000000E+01</wgt>
</rwgt>
<clustering>
<clus scale="  128.963">  2  4  1 -1</clus>
<clus scale="  128.963">  2  3  1 -1</clus>
</clustering>
</event>
<event>
 5   3  0.8512900E+003  0.1266547E+03  0.7546771E-02  0.1124365E+00
       21   -1    0    0  503  502  0.00000000000E+00  0.00000000000E+00  0.14205990877E+04  0.14205990877E+04  0.00000000000E+00 0. -1.
        1   -1    0    0  502    0 -0.00000000000E+00 -0.00000000000E+00 -0.33993893652E+02  0.33993893652E+02  0.00000000000E+00 0. -1.
       23    1    1    2    0    0 -0.85463271405E+02 -0.51214548997E+02  0.14074735693E+03  0.19506914317E+03  0.91188000000E+02 0. -1.
       21    1    1    2  503  501  0.16887993310E+02  0.23358421323E+02  0.10460505481E+04  0.10464475951E+04  0.00000000000E+00 0. -1.
        1    1    1    2  501    0  0.68575278095E+02  0.27856127674E+02  0.19980728909E+03  0.21307624314E+03  0.00000000000E+00 0. -1.
<scales pt_clust_3="100000.00000" pt_clust_4="28.82395" pt_clust_5="87.89856"></scales>
<rwgt>
<wgt id='bias'>   0.1000000E+01</wgt>
</rwgt>
<clustering>
<clus scale="   28.824">  1  4  2 -1</clus>
<clus scale="   87.899">  1  5  2 -1</clus>
<clus scale="   28.824">  1  3  2 -1</clus>
</clustering>
</event>
<event>
 3   1  0.8512900E+003  0.9118800E+02  0.7546771E-02  0.1180022E+00
        2   -1    0    0  501    0  0.00000000000E+00  0.00000000000E+00  0.30509334186E+04  0.30509334186E+04  0.00000000000E+00 0. -1.
       -2   -1    0    0    0  501 -0.00000000000E+00 -0.00000000000E+00 -0.68136945346E+00  0.68136945346E+00  0.00000000000E+00 0.  1.
       23    1    1    2    0    0  0.00000000000E+00  0.00000000000E+00  0.30502520492E+04  0.30516147881E+04  0.91188000000E+02 0. -1.
<scales pt_clust_3="100000.00000"></scales>
<rwgt>
<wgt id='bias'>   0.1000000E+01</wgt>
</rwgt>
<clustering>
<clus scale="   91.188">  1  3  2 -1</clus>
</clustering>
</event>
<event>
 5   3  0.8512900E+003  0.9270153E+02  0.7546771E-02  0.1177099E+00
        2   -1    0    0  503    0 -0.00000000000E+00  0.00000000000E+00  0.49491243783E+04  0.49491243783E+04  0.00000000000E+00 0. -1.
       21   -1    0    0  501  502  0.00000000000E+00 -0.00000000000E+00 -0.51167858755E+01  0.51167858755E+01  0.00000000000E+00 0.  1.
       23    1    1    2    0    0 -0.19714796114E+01  0.16836894801E+02  0.47425913990E+04  0.47434982657E+04  0.91188000000E+02 0. -1.
       21    1    1    2  503  502  0.29261526710E+02 -0.31161551638E+01  0.72222288974E+02  0.77987219421E+02  0.00000000000E+00 0.  1.
        2    1    1    2  501    0 -0.27290047098E+02 -0.13720739638E+02  0.12919390451E+03  0.13275567908E+03  0.00000000000E+00 0. -1.
<scales pt_clust_3="100000.00000" pt_clust_4="29.42698" pt_clust_5="16.68298"></scales>
<rwgt>
<wgt id='bias'>   0.1000000E+01</wgt>
</rwgt>
<clustering>
<clus scale="   29.427">  2  4  1 -1</clus>
<clus scale="   16.683">  2  5  1 -1</clus>
<clus scale="   29.427">  2  3  1 -1</clus>
</clustering>
</event>
<event>
 4   2  0.8512900E+003  0.9342656E+02  0.7546771E-02  0.1175720E+00
        1   -1    0    0  502    0 -0.00000000000E+00  0.00000000000E+00  0.46642426461E+02  0.46642426461E+02  0.00000000000E+00 0. -1.
       21   -1    0    0  501  502  0.00000000000E+00 -0.00000000000E+00 -0.73449252179E+02  0.73449252179E+02  0.00000000000E+00 0.  1.
       23    1    1    2    0    0  0.19609925717E+02 -0.53592868273E+01 -0.10469333643E+02  0.94011326088E+02  0.91188000000E+02 0.  0.
        1    1    1    2  501    0 -0.19609925717E+02  0.53592868273E+01 -0.16337492076E+02  0.26080352552E+02  0.00000000000E+00 0. -1.
<scales pt_clust_3="100000.00000" pt_clust_4="20.32907"></scales>
<rwgt>
<wgt id='bias'>   0.1000000E+01</wgt>
</rwgt>
<clustering>
<clus scale="   20.329">  2  4  1 -1</clus>
<clus scale="   20.329">  2  3  1 -1</clus>
</clustering>
</event>
<event>
 4   2  0.8512900E+003  0.9204955E+02  0.7546771E-02  0.1178350E+00
       -2   -1    0    0    0  501 -0.00000000000E+00  0.00000000000E+00  0.81798477484E+00  0.81798477484E+00  0.00000000000E+00 0.  1.
        2   -1    0    0  502    0  0.00000000000E+00 -0.00000000000E+00 -0.34682110299E+04  0.34682110299E+04  0.00000000000E+00 0. -1.
       23    1    1    2    0    0 -0.12561430593E+02 -0.28127919201E+00 -0.27862900523E+04  0.27878101398E+04  0.91188000000E+02 0.  0.
       21    1    1    2  502  501  0.12561430593E+02  0.28127919201E+00 -0.68110299277E+03  0.68121887483E+03  0.00000000000E+00 0. -1.
<scales pt_clust_3="100000.00000" pt_clust_4="12.56458"></scales>
<rwgt>
<wgt id='bias'>   0.1000000E+01</wgt>
</rwgt>
<clustering>
<clus scale="   12.565">  2  4  1 -1</clus>
<clus scale="   12.565">  2  3  1 -1</clus>
</clustering>
</event>
<event>
 5   3  0.8512900E+003  0.9306754E+02  0.7546771E-02  0.1176401E+00
       21   -1    0    0  501  502  0.00000000000E+00  0.00000000000E+00  0.30898154196E+01  0.30898154196E+01  0.00000000000E+00 0.  1.
        3   -1    0    0  503    0 -0.00000000000E+00 -0.00000000000E+00 -0.15300894750E+04  0.15300894750E+04  0.00000000000E+00 0. -1.
       23    1    1    2    0    0  0.16594914875E+02 -0.17312100009E+02 -0.12497505134E+04  0.12533023167E+04  0.91188000000E+02 0. -1.
       21    1    1    2  503  502 -0.14277765120E+02  0.63797149431E+01 -0.50807443710E+02  0.53159680924E+02  0.00000000000E+00 0.  1.
        3    1    1    2  501    0 -0.23171497548E+01  0.10932385066E+02 -0.22644170246E+03  0.22671729276E+03  0.00000000000E+00 0. -1.
<scales pt_clust_3="100000.00000" pt_clust_4="18.60955" pt_clust_5="11.17526"></scales>
<rwgt>
<wgt id='bias'>   0.1000000E+01</wgt>
</rwgt>
<clustering>
<clus scale="   11.175">  1  5  2 -1</clus>
<clus scale="   18.610">  1  4  2 -1</clus>
<clus scale="   11.175">  1  3  2 -1</clus>
</clustering>
</event>
<event>
 5   3  0.8512900E+003  0.9610052E+02  0.7546771E-02  0.1170757E+00
       -5   -1    0    0    0  501 -0.00000000000E+00  0.00000000000E+00  0.11701081069E+02  0.11701081069E+02  0.00000000000E+00 0.  1.
       21   -1    0    0  503  502  0.00000000000E+00 -0.00000000000E+00 -0.69608128561E+03  0.69608128561E+03  0.00000000000E+00 0. -1.
       23    1    1    2    0    0  0.33971106286E+02  0.29064592782E+01 -0.21807200947E+03  0.23881611384E+03  0.91188000000E+02 0.  1.
       21    1    1    2  503  501 -0.23468356392E+02  0.35617554520E+01 -0.42931747880E+03  0.42997319388E+03  0.00000000000E+00 0. -1.
       -5    1    1    2    0  502 -0.10502749893E+02 -0.64682147301E+01 -0.36990716265E+02  0.38993058959E+02  0.00000000000E+00 0.  1.
<scales pt_clust_3="100000.00000" pt_clust_4="30.33247" pt_clust_5="12.33474"></scales>
<rwgt>
<wgt id='bias'>   0.1000000E+01</wgt>
</rwgt>
<clustering>
<clus scale="   12.335">  2  5  1 -1</clus>
<clus scale="   30.332">  2  4  1 -1</clus>
<clus scale="   12.335">  2  3  1 -1</clus>
</clustering>
</event>
<event>
 3   1  0.8512900E+003  0.9118800E+02  0.7546771E-02  0.1180022E+00
        3   -1    0    0  501    0  0.00000000000E+00  0.00000000000E+00  0.40632304444E+04  0.40632304444E+04  0.00000000000E+00 0. -1.
       -3   -1    0    0    0  501 -0.00000000000E+00 -0.00000000000E+00 -0.51161578563E+00  0.51161578563E+00  0.00000000000E+00 0.  1.
       23    1    1    2    0    0  0.00000000000E+00  0.00000000000E+00  0.40627188286E+04  0.40637420602E+04  0.91188000000E+02 0. -1.
<scales pt_clust_3="100000.00000"></scales>
<rwgt>
<wgt id='bias'>   0.1000000E+01</wgt>
</rwgt>
<clustering>
<clus scale="   91.188">  1  3  2 -1</clus>
</clustering>
</event>
<event>
 4   2  0.8512900E+003  0.9871967E+02  0.7546771E-02  0.1166068E+00
       21   -1    0    0  501  502  0.00000000000E+00  0.00000000000E+00  0.23512091011E+01  0.23512091011E+01  0.00000000000E+00 0. -1.
       -3   -1    0    0    0  501 -0.00000000000E+00 -0.00000000000E+00 -0.26856100223E+04  0.26856100223E+04  0.00000000000E+00 0.  1.
       23    1    1    2    0    0 -0.16241274610E+02 -0.34154691267E+02 -0.11480311671E+04  0.11522678222E+04  0.91188000000E+02 0. -1.
       -3    1    1    2    0  502  0.16241274610E+02  0.34154691267E+02 -0.15352276460E+04  0.15356934092E+04  0.00000000000E+00 0.  1.
<scales pt_clust_3="100000.00000" pt_clust_4="37.81962"></scales>
<rwgt>
<wgt id='bias'>   0.1000000E+01</wgt>
</rwgt>
<clustering>
<clus scale="   37.820">  1  4  2 -1</clus>
<clus scale="   37.820">  1  3  2 -1</clus>
</clustering>
</event>
<event>
 3   1  0.8512900E+003  0.9118800E+02  0.7546771E-02  0.1180022E+00
        2   -1    0    0  501    0  0.00000000000E+00  0.00000000000E+00  0.66222876463E+04  0.66222876463E+04  0.00000000000E+00 0. -1.
       -2   -1    0    0    0  501 -0.00000000000E+00 -0.00000000000E+00 -0.31391158872E+00  0.31391158872E+00  0.00000000000E+00 0.  1.
       23    1    1    2    0    0  0.00000000000E+00  0.00000000000E+00  0.66219737347E+04  0.66226015579E+04  0.91188000000E+02 0. -1.
<scales pt_clust_3="100000.00000"></scales>
<rwgt>
<wgt id='bias'>   0.1000000E+01</wgt>
</rwgt>
<clustering>
<clus scale="   91.188">  1  3  2 -1</clus>
</clustering>
</event>
<event>
 4   2  0.8512900E+003  0.9247804E+02  0.7546771E-02  0.1177526E+00
       21   -1    0    0  501  502  0.00000000000E+00  0.00000000000E+00  0.61658093253E+01  0.61658093253E+01  0.00000000000E+00 0. -1.
       -1   -1    0    0    0  501 -0.00000000000E+00 -0.00000000000E+00 -0.47613499214E+03  0.47613499214E+03  0.00000000000E+00 0.  1.
       23    1    1    2    0    0  0.45666325385E+01  0.14699751260E+02 -0.38520447408E+03  0.39614981385E+03  0.91188000000E+02 0. -1.
       -1    1    1    2    0  502 -0.45666325385E+01 -0.14699751260E+02 -0.84764708735E+02  0.86150987614E+02  0.00000000000E+00 0.  1.
<scales pt_clust_3="100000.00000" pt_clust_4="15.39276"></scales>
<rwgt>
<wgt id='bias'>   0.1000000E+01</wgt>
</rwgt>
<clustering>
<clus scale="   15.393">  1  4  2 -1</clus>
<clus scale="   15.393">  1  3  2 -1</clus>
</clustering>
</event>
<event>
 3   1  0.8512900E+003  0.9118800E+02  0.7546771E-02  0.1180022E+00
        2   -1    0    0  501    0  0.00000000000E+00  0.00000000000E+00  0.74506387541E+04  0.74506387541E+04  0.00000000000E+00 0. -1.
       -2   -1    0    0    0  501 -0.00000000000E+00 -0.00000000000E+00 -0.27901135790E+00  0.27901135790E+00  0.00000000000E+00 0.  1.
       23    1    1    2    0    0  0.00000000000E+00  0.00000000000E+00  0.74503597427E+04  0.74509177654E+04  0.91188000000E+02 0. -1.
<scales pt_clust_3="100000.00000"></scales>
<rwgt>
<wgt id='bias'>   0.1000000E+01</wgt>
</rwgt>
<clustering>
<clus scale="   91.188">  1  3  2 -1</clus>
</clustering>
</event>
<event>
 4   2  0.8512900E+003  0.9236066E+02  0.7546771E-02  0.1177752E+00
       21   -1    0    0  501  502  0.00000000000E+00  0.00000000000E+00  0.14032088268E+02  0.14032088268E+02  0.00000000000E+00 0. -1.
       -2   -1    0    0    0  501 -0.00000000000E+00 -0.00000000000E+00 -0.34441233941E+03  0.34441233941E+03  0.00000000000E+00 0.  1.
       23    1    1    2    0    0 -0.12514408926E+02  0.76569606653E+01 -0.33111480601E+03  0.34375500808E+03  0.91188000000E+02 0.  1.
       -2    1    1    2    0  502  0.12514408926E+02 -0.76569606653E+01  0.73455486292E+00  0.14689419602E+02  0.00000000000E+00 0.  1.
<scales pt_clust_3="100000.00000" pt_clust_4="14.67104"></scales>
<rwgt>
<wgt id='bias'>   0.1000000E+01</wgt>
</rwgt>
<clustering>
<clus scale="   14.671">  1  4  2 -1</clus>
<clus scale="   14.671">  1  3  2 -1</clus>
</clustering>
</event>
<event>
 5   3  0.8512900E+003  0.1174687E+02  0.7546771E-02  0.1178566E+00
       -5   -1    0    0    0  501 -0.00000000000E+00  0.00000000000E+00  0.84026916049E+01  0.84026916049E+01  0.00000000000E+00 0.  1.
       21   -1    0    0  503  502  0.00000000000E+00 -0.00000000000E+00 -0.59630936719E+03  0.59630936719E+03  0.00000000000E+00 0.  1.
       23    1    1    2    0    0 -0.32973869191E+01  0.42823543094E+01 -0.55003786710E+03  0.55757162581E+03  0.91188000000E+02 0.  1.
       21    1    1    2  503  501  0.90710964838E+00  0.11711793274E+02 -0.13517987778E+02  0.17908795135E+02  0.00000000000E+00 0. -1.
       -5    1    1    2    0  502  0.23902772707E+01 -0.15994147584E+02 -0.24350820704E+02  0.29231637849E+02  0.00000000000E+00 0.  1.
<scales pt_clust_3="100000.00000" pt_clust_4="11.74687" pt_clust_5="11.71620"></scales>
<rwgt>
<wgt id='bias'>   0.1000000E+01</wgt>
</rwgt>
<clustering>
<clus scale="   11.747">  1  4  2 -1</clus>
<clus scale="   11.716">  2  5  1 -1</clus>
<clus scale="   11.716">  2  3  1 -1</clus>
</clustering>
</event>
<event>
 3   1  0.8512900E+003  0.9118800E+02  0.7546771E-02  0.1180022E+00
       -2   -1    0    0    0  501 -0.00000000000E+00  0.00000000000E+00  0.11787247496E+01  0.11787247496E+01  0.00000000000E+00 0. -1.
        2   -1    0    0  501    0  0.00000000000E+00 -0.00000000000E+00 -0.17636117650E+04  0.17636117650E+04  0.00000000000E+00 0.  1.
       23    1    1    2    0    0  0.00000000000E+00 -0.00000000000E+00 -0.17624330402E+04  0.17647904897E+04  0.91188000000E+02 0. -1.
<scales pt_clust_3="100000.00000"></scales>
<rwgt>
<wgt id='bias'>   0.1000000E+01</wgt>
</rwgt>
<clustering>
<clus scale="   91.188">  2  3  1 -1</clus>
</clustering>
</event>
<event>
 3   1  0.8512900E+003  0.9118800E+02  0.7546771E-02  0.1180022E+00
       -3   -1    0    0    0  501 -0.00000000000E+00  0.00000000000E+00  0.42947380151E+03  0.42947380151E+03  0.00000000000E+00 0.  1.
        3   -1    0    0  501    0  0.00000000000E+00 -0.00000000000E+00 -0.48403717029E+01  0.48403717029E+01  0.00000000000E+00 0. -1.
       23    1    1    2    0    0  0.00000000000E+00 -0.00000000000E+00  0.42463342981E+03  0.43431417322E+03  0.91188000000E+02 0.  1.
<scales pt_clust_3="100000.00000"></scales>
<rwgt>
<wgt id='bias'>   0.1000000E+01</wgt>
</rwgt>
<clustering>
<clus scale="   91.188">  2  3  1 -1</clus>
</clustering>
</event>
<event>
 3   1  0.8512900E+003  0.9118800E+02  0.7546771E-02  0.1180022E+00
        5   -1    0    0  501    0  0.00000000000E+00  0.00000000000E+00  0.38082555099E+04  0.38082555099E+04  0.00000000000E+00 0. -1.
       -5   -1    0    0    0  501 -0.00000000000E+00 -0.00000000000E+00 -0.54587010524E+00  0.54587010524E+00  0.00000000000E+00 0.  1.
       23    1    1    2    0    0  0.00000000000E+00  0.00000000000E+00  0.38077096398E+04  0.38088013800E+04  0.91188000000E+02 0. -1.
<scales pt_clust_3="100000.00000"></scales>
<rwgt>
<wgt id='bias'>   0.1000000E+01</wgt>
</rwgt>
<clustering>
<clus scale="   91.188">  1  3  2 -1</clus>
</clustering>
</event>
<event>
 4   2  0.8512900E+003  0.9766838E+02  0.7546771E-02  0.1167930E+00
       -3   -1    0    0    0  501 -0.00000000000E+00  0.00000000000E+00  0.51854278653E+03  0.51854278653E+03  0.00000000000E+00 0.  1.
        3   -1    0    0  502    0  0.00000000000E+00 -0.00000000000E+00 -0.10623155523E+02  0.10623155523E+02  0.00000000000E+00 0. -1.
       23    1    1    2    0    0  0.90550750467E+01 -0.33791516032E+02  0.24216749145E+03  0.26112105660E+03  0.91188000000E+02 0.  1.
       21    1    1    2  502  501 -0.90550750467E+01  0.33791516032E+02  0.26575213955E+03  0.26804488545E+03  0.00000000000E+00 0.  1.
<scales pt_clust_3="100000.00000" pt_clust_4="34.98372"></scales>
<rwgt>
<wgt id='bias'>   0.1000000E+01</wgt>
</rwgt>
<clustering>
<clus scale="   34.984">  1  4  2 -1</clus>
<clus scale="   97.668">  2  3  1 -1</clus>
</clustering>
</event>
<event>
 3   1  0.8512900E+003  0.9118800E+02  0.7546771E-02  0.1180022E+00
        5   -1    0    0  501    0  0.00000000000E+00  0.00000000000E+00  0.86959515373E+01  0.86959515373E+01  0.00000000000E+00 0. -1.
       -5   -1    0    0    0  501 -0.00000000000E+00 -0.00000000000E+00 -0.23905524624E+03  0.23905524624E+03  0.00000000000E+00 0.  1.
       23    1    1    2    0    0  0.00000000000E+00  0.00000000000E+00 -0.23035929470E+03  0.24775119777E+03  0.91188000000E+02 0. -1.
<scales pt_clust_3="100000.00000"></scales>
<rwgt>
<wgt id='bias'>   0.1000000E+01</wgt>
</rwgt>
<clustering>
<clus scale="   91.188">  1  3  2 -1</clus>
</clustering>
</event>
<event>
 3   1  0.8512900E+003  0.9118800E+02  0.7546771E-02  0.1180022E+00
        3   -1    0    0  501    0  0.00000000000E+00  0.00000000000E+00  0.64014232064E+03  0.64014232064E+03  0.00000000000E+00 0. -1.
       -3   -1    0    0    0  501 -0.00000000000E+00 -0.00000000000E+00 -0.32474229073E+01  0.32474229073E+01  0.00000000000E+00 0.  1.
       23    1    1    2    0    0  0.00000000000E+00  0.00000000000E+00  0.63689489773E+03  0.64338974355E+03  0.91188000000E+02 0. -1.
<scales pt_clust_3="100000.00000"></scales>
<rwgt>
<wgt id='bias'>   0.1000000E+01</wgt>
</rwgt>
<clustering>
<clus scale="   91.188">  1  3  2 -1</clus>
</clustering>
</event>
<event>
 3   1  0.8512900E+003  0.9118800E+02  0.7546771E-02  0.1180022E+00
       -2   -1    0    0    0  501 -0.00000000000E+00  0.00000000000E+00  0.15716422533E+00  0.15716422533E+00  0.00000000000E+00 0.  1.
        2   -1    0    0  501    0  0.00000000000E+00 -0.00000000000E+00 -0.13227010356E+05  0.13227010356E+05  0.00000000000E+00 0. -1.
       23    1    1    2    0    0  0.00000000000E+00 -0.00000000000E+00 -0.13226853192E+05  0.13227167520E+05  0.91188000000E+02 0.  1.
<scales pt_clust_3="100000.00000"></scales>
<rwgt>
<wgt id='bias'>   0.1000000E+01</wgt>
</rwgt>
<clustering>
<clus scale="   91.188">  2  3  1 -1</clus>
</clustering>
</event>
<event>
 3   1  0.8512900E+003  0.9118800E+02  0.7546771E-02  0.1180022E+00
        2   -1    0    0  501    0  0.00000000000E+00  0.00000000000E+00  0.78280533478E+04  0.78280533478E+04  0.00000000000E+00 0. -1.
       -2   -1    0    0    0  501 -0.00000000000E+00 -0.00000000000E+00 -0.26555935986E+00  0.26555935986E+00  0.00000000000E+00 0.  1.
       23    1    1    2    0    0  0.00000000000E+00  0.00000000000E+00  0.78277877884E+04  0.78283189072E+04  0.91188000000E+02 0. -1.
<scales pt_clust_3="100000.00000"></scales>
<rwgt>
<wgt id='bias'>   0.1000000E+01</wgt>
</rwgt>
<clustering>
<clus scale="   91.188">  1  3  2 -1</clus>
</clustering>
</event>
<event>
 4   2  0.8512900E+003  0.9538384E+02  0.7546771E-02  0.1172069E+00
       21   -1    0    0  501  502  0.00000000000E+00  0.00000000000E+00  0.15619070193E+04  0.15619070193E+04  0.00000000000E+00 0.  1.
        4   -1    0    0  502    0 -0.00000000000E+00 -0.00000000000E+00 -0.36565495770E+01  0.36565495770E+01  0.00000000000E+00 0. -1.
       23    1    1    2    0    0 -0.23247357252E+01 -0.27882259688E+02  0.14675317187E+04  0.14706282404E+04  0.91188000000E+02 0.  1.
        4    1    1    2  501    0  0.23247357252E+01  0.27882259688E+02  0.90718751076E+02  0.94935328505E+02  0.00000000000E+00 0. -1.
<scales pt_clust_3="100000.00000" pt_clust_4="27.97902"></scales>
<rwgt>
<wgt id='bias'>   0.1000000E+01</wgt>
</rwgt>
<clustering>
<clus scale="   27.979">  1  4  2 -1</clus>
<clus scale="   27.979">  1  3  2 -1</clus>
</clustering>
</event>
<event>
 5   3  0.8512900E+003  0.1520617E+03  0.7546771E-02  0.1095657E+00
       21   -1    0    0  501  502  0.00000000000E+00  0.00000000000E+00  0.72206821648E+04  0.72206821648E+04  0.00000000000E+00 0.  1.
        4   -1    0    0  503    0 -0.00000000000E+00 -0.00000000000E+00 -0.16796188178E+02  0.16796188178E+02  0.00000000000E+00 0. -1.
       23    1    1    2    0    0  0.11630246077E+03  0.36005023157E+01  0.58610593925E+03  0.60446228117E+03  0.91188000000E+02 0.  0.
       21    1    1    2  503  502  0.10135701278E+02 -0.71192423219E+01  0.60999201855E+04  0.60999327607E+04  0.00000000000E+00 0.  1.
        4    1    1    2  501    0 -0.12643816205E+03  0.35187400063E+01  0.51785985188E+03  0.53308331107E+03  0.00000000000E+00 0. -1.
<scales pt_clust_3="100000.00000" pt_clust_4="12.38612" pt_clust_5="121.68613"></scales>
<rwgt>
<wgt id='bias'>   0.1000000E+01</wgt>
</rwgt>
<clustering>
<clus scale="   12.386">  1  4  2 -1</clus>
<clus scale="  121.686">  1  5  2 -1</clus>
<clus scale="   12.386">  1  3  2 -1</clus>
</clustering>
</event>
<event>
 5   3  0.8512900E+003  0.2487781E+03  0.7546771E-02  0.1025270E+00
       -2   -1    0    0    0  501 -0.00000000000E+00  0.00000000000E+00  0.23173299250E+03  0.23173299250E+03  0.00000000000E+00 0.  1.
       21   -1    0    0  503  502  0.00000000000E+00 -0.00000000000E+00 -0.32490145992E+03  0.32490145992E+03  0.00000000000E+00 0.  1.
       23    1    1    2    0    0 -0.18473741065E+03 -0.12917417956E+03 -0.56464270555E+02  0.24963442221E+03  0.91188000000E+02 0.  1.
       21    1    1    2  503  501  0.16841979480E+01 -0.19475672427E+02 -0.66503387442E+02  0.69316945118E+02  0.00000000000E+00 0. -1.
       -2    1    1    2    0  502  0.18305321270E+03  0.14864985198E+03  0.29799190580E+02  0.23768308509E+03  0.00000000000E+00 0.  1.
<scales pt_clust_3="100000.00000" pt_clust_4="19.54836" pt_clust_5="231.46351"></scales>
<rwgt>
<wgt id='bias'>   0.1000000E+01</wgt>
</rwgt>
<clustering>
<clus scale="   19.548">  2  4  1 -1</clus>
<clus scale="  231.464">  2  5  1 -1</clus>
<clus scale="   19.548">  2  3  1 -1</clus>
</clustering>
</event>
<event>
 5   3  0.8512900E+003  0.1286587E+03  0.7546771E-02  0.1121839E+00
       21   -1    0    0  501  502  0.00000000000E+00  0.00000000000E+00  0.54769962736E+01  0.54769962736E+01  0.00000000000E+00 0.  1.
       -1   -1    0    0    0  501 -0.00000000000E+00 -0.00000000000E+00 -0.27102848443E+04  0.27102848443E+04  0.00000000000E+00 0.  1.
       23    1    1    2    0    0  0.49981556485E+02  0.61964490299E+02 -0.10375714734E+04  0.10446088109E+04  0.91188000000E+02 0.  1.
       21    1    1    2  503  502  0.53108327640E+01  0.16041891531E+02 -0.16084240821E+03  0.16172763372E+03  0.00000000000E+00 0.  1.
       -1    1    1    2    0  503 -0.55292389249E+02 -0.78006381830E+02 -0.15063939664E+04  0.15094253959E+04  0.00000000000E+00 0.  1.
<scales pt_clust_3="100000.00000" pt_clust_4="16.89814" pt_clust_5="90.76238"></scales>
<rwgt>
<wgt id='bias'>   0.1000000E+01</wgt>
</rwgt>
<clustering>
<clus scale="   16.898">  1  4  2 -1</clus>
<clus scale="   90.762">  1  5  2 -1</clus>
<clus scale="   16.898">  1  3  2 -1</clus>
</clustering>
</event>
<event>
 5   3  0.8512900E+003  0.9443767E+02  0.7546771E-02  0.1173822E+00
       -1   -1    0    0    0  501 -0.00000000000E+00  0.00000000000E+00  0.69731723686E+00  0.69731723686E+00  0.00000000000E+00 0.  1.
       21   -1    0    0  503  502  0.00000000000E+00 -0.00000000000E+00 -0.13478833760E+05  0.13478833760E+05  0.00000000000E+00 0.  1.
       23    1    1    2    0    0  0.23546741795E+02  0.13827238040E+02 -0.40894681531E+04  0.40905758357E+04  0.91188000000E+02 0.  1.
       21    1    1    2  503  501 -0.13805703534E+02 -0.20080528780E+02 -0.10644312644E+04  0.10647101680E+04  0.00000000000E+00 0. -1.
       -1    1    1    2    0  502 -0.97410382607E+01  0.62532907405E+01 -0.83242370249E+04  0.83242450732E+04  0.00000000000E+00 0.  1.
<scales pt_clust_3="100000.00000" pt_clust_4="24.56057" pt_clust_5="11.57547"></scales>
<rwgt>
<wgt id='bias'>   0.1000000E+01</wgt>
</rwgt>
<clustering>
<clus scale="   11.575">  2  5  1 -1</clus>
<clus scale="   24.561">  2  4  1 -1</clus>
<clus scale="   11.575">  2  3  1 -1</clus>
</clustering>
</event>
<event>
 4   2  0.8512900E+003  0.9329370E+02  0.7546771E-02  0.1175972E+00
       -2   -1    0    0    0  501 -0.00000000000E+00  0.00000000000E+00  0.82839768429E+04  0.82839768429E+04  0.00000000000E+00 0.  1.
        2   -1    0    0  502    0  0.00000000000E+00 -0.00000000000E+00 -0.15207192630E+01  0.15207192630E+01  0.00000000000E+00 0. -1.
       23    1    1    2    0    0  0.15762993204E+02 -0.11831790751E+02  0.14428342276E+04  0.14458472682E+04  0.91188000000E+02 0. -1.
       21    1    1    2  502  501 -0.15762993204E+02  0.11831790751E+02  0.68396218960E+04  0.68396502939E+04  0.00000000000E+00 0.  1.
<scales pt_clust_3="100000.00000" pt_clust_4="19.70947"></scales>
<rwgt>
<wgt id='bias'>   0.1000000E+01</wgt>
</rwgt>
<clustering>
<clus scale="   19.709">  1  4  2 -1</clus>
<clus scale="   93.294">  2  3  1 -1</clus>
</clustering>
</event>
<event>
 5   3  0.8512900E+003  0.9826873E+02  0.7546771E-02  0.1166863E+00
       21   -1    0    0  503  502  0.00000000000E+00  0.00000000000E+00  0.42041768963E+03  0.42041768963E+03  0.00000000000E+00 0.  1.
       -1   -1    0    0    0  501 -0.00000000000E+00 -0.00000000000E+00 -0.24592833047E+03  0.24592833047E+03  0.00000000000E+00 0.  1.
       23    1    1    2    0    0  0.36053363198E+02  0.63602829558E+00 -0.18170387264E+03  0.20647469144E+03  0.91188000000E+02 0.  1.
       21    1    1    2  503  501 -0.54697219435E+02 -0.19155417472E+02  0.40248754649E+03  0.40663858758E+03  0.00000000000E+00 0.  1.
       -1    1    1    2    0  502  0.18643856236E+02  0.18519389176E+02 -0.46294314684E+02  0.53232741080E+02  0.00000000000E+00 0.  1.
<scales pt_clust_3="100000.00000" pt_clust_4="36.62639" pt_clust_5="26.27854"></scales>
<rwgt>
<wgt id='bias'>   0.1000000E+01</wgt>
</rwgt>
<clustering>
<clus scale="   26.279">  1  5  2 -1</clus>
<clus scale="   36.626">  1  4  2 -1</clus>
<clus scale="   26.279">  1  3  2 -1</clus>
</clustering>
</event>
<event>
 3   1  0.8512900E+003  0.9118800E+02  0.7546771E-02  0.1180022E+00
       -2   -1    0    0    0  501 -0.00000000000E+00  0.00000000000E+00  0.14518606110E+02  0.14518606110E+02  0.00000000000E+00 0.  1.
        2   -1    0    0  501    0  0.00000000000E+00 -0.00000000000E+00 -0.14318267334E+03  0.14318267334E+03  0.00000000000E+00 0. -1.
       23    1    1    2    0    0  0.00000000000E+00 -0.00000000000E+00 -0.12866406723E+03  0.15770127945E+03  0.91188000000E+02 0.  1.
<scales pt_clust_3="100000.00000"></scales>
<rwgt>
<wgt id='bias'>   0.1000000E+01</wgt>
</rwgt>
<clustering>
<clus scale="   91.188">  2  3  1 -1</clus>
</clustering>
</event>
<event>
 4   2  0.8512900E+003  0.1000928E+03  0.7546771E-02  0.1163674E+00
        3   -1    0    0  502    0 -0.00000000000E+00  0.00000000000E+00  0.28378232384E+02  0.28378232384E+02  0.00000000000E+00 0. -1.
       21   -1    0    0  501  502  0.00000000000E+00 -0.00000000000E+00 -0.75281941660E+03  0.75281941660E+03  0.00000000000E+00 0. -1.
       23    1    1    2    0    0 -0.28685318344E+01 -0.41171392790E+02 -0.62569067150E+02  0.11804004222E+03  0.91188000000E+02 0. -1.
        3    1    1    2  501    0  0.28685318344E+01  0.41171392790E+02 -0.66187211707E+03  0.66315760677E+03  0.00000000000E+00 0. -1.
<scales pt_clust_3="100000.00000" pt_clust_4="41.27120"></scales>
<rwgt>
<wgt id='bias'>   0.1000000E+01</wgt>
</rwgt>
<clustering>
<clus scale="   41.271">  2  4  1 -1</clus>
<clus scale="   41.271">  2  3  1 -1</clus>
</clustering>
</event>
<event>
 4   2  0.8512900E+003  0.9187306E+02  0.7546771E-02  0.1178691E+00
        4   -1    0    0  502    0 -0.00000000000E+00  0.00000000000E+00  0.11849443950E+03  0.11849443950E+03  0.00000000000E+00 0. -1.
       21   -1    0    0  501  502  0.00000000000E+00 -0.00000000000E+00 -0.30053143556E+02  0.30053143556E+02  0.00000000000E+00 0. -1.
       23    1    1    2    0    0  0.93399242793E+01  0.61784460357E+01  0.97630751017E+02  0.13406126312E+03  0.91188000000E+02 0. -1.
        4    1    1    2  501    0 -0.93399242793E+01 -0.61784460357E+01 -0.91894550688E+01  0.14486319941E+02  0.00000000000E+00 0. -1.
<scales pt_clust_3="100000.00000" pt_clust_4="11.19854"></scales>
<rwgt>
<wgt id='bias'>   0.1000000E+01</wgt>
</rwgt>
<clustering>
<clus scale="   11.199">  2  4  1 -1</clus>
<clus scale="   11.199">  2  3  1 -1</clus>
</clustering>
</event>
<event>
 3   1  0.8512900E+003  0.9118800E+02  0.7546771E-02  0.1180022E+00
        4   -1    0    0  501    0  0.00000000000E+00  0.00000000000E+00  0.14208830792E+04  0.14208830792E+04  0.00000000000E+00 0. -1.
       -4   -1    0    0    0  501 -0.00000000000E+00 -0.00000000000E+00 -0.14630428544E+01  0.14630428544E+01  0.00000000000E+00 0.  1.
       23    1    1    2    0    0  0.00000000000E+00  0.00000000000E+00  0.14194200363E+04  0.14223461221E+04  0.91188000000E+02 0. -1.
<scales pt_clust_3="100000.00000"></scales>
<rwgt>
<wgt id='bias'>   0.1000000E+01</wgt>
</rwgt>
<clustering>
<clus scale="   91.188">  1  3  2 -1</clus>
</clustering>
</event>
<event>
 3   1  0.8512900E+003  0.9118800E+02  0.7546771E-02  0.1180022E+00
       -5   -1    0    0    0  501 -0.00000000000E+00  0.00000000000E+00  0.10272425270E+03  0.10272425270E+03  0.00000000000E+00 0.  1.
        5   -1    0    0  501    0  0.00000000000E+00 -0.00000000000E+00 -0.20236826079E+02  0.20236826079E+02  0.00000000000E+00 0. -1.
       23    1    1    2    0    0  0.00000000000E+00 -0.00000000000E+00  0.82487426622E+02  0.12296107878E+03  0.91188000000E+02 0.  1.
<scales pt_clust_3="100000.00000"></scales>
<rwgt>
<wgt id='bias'>   0.1000000E+01</wgt>
</rwgt>
<clustering>
<clus scale="   91.188">  2  3  1 -1</clus>
</clustering>
</event>
<event>
 5   3  0.8512900E+003  0.1731074E+03  0.7546771E-02  0.1076179E+00
       21   -1    0    0  503  502  0.00000000000E+00  0.00000000000E+00  0.12576242010E+04  0.12576242010E+04  0.00000000000E+00 0. -1.
        2   -1    0    0  502    0 -0.00000000000E+00 -0.00000000000E+00 -0.35392439956E+03  0.35392439956E+03  0.00000000000E+00 0. -1.
       23    1    1    2    0    0 -0.16168527099E+02  0.39006872004E+02 -0.32944755392E+03  0.34443272124E+03  0.91188000000E+02 0. -1.
       21    1    1    2  503  501  0.13424083800E+02 -0.86942805468E+01  0.12364023122E+04  0.12365057517E+04  0.00000000000E+00 0. -1.
        2    1    1    2  501    0  0.27444432989E+01 -0.30312591457E+02 -0.32549567587E+01  0.30610127627E+02  0.00000000000E+00 0. -1.
<scales pt_clust_3="100000.00000" pt_clust_4="15.99364" pt_clust_5="100000.00000"></scales>
<rwgt>
<wgt id='bias'>   0.1000000E+01</wgt>
</rwgt>
<clustering>
<clus scale="   15.994">  1  4  2 -1</clus>
<clus scale="   37.700">  3  5 -1 -1</clus>
<clus scale="   15.994">  1  3  2 -1</clus>
</clustering>
</event>
<event>
 5   3  0.8512900E+003  0.1078397E+03  0.7546771E-02  0.1150929E+00
        1   -1    0    0  502    0  0.00000000000E+00  0.00000000000E+00  0.12104345775E+04  0.12104345775E+04  0.00000000000E+00 0. -1.
        5   -1    0    0  501    0 -0.00000000000E+00 -0.00000000000E+00 -0.39651759849E+02  0.39651759849E+02  0.00000000000E+00 0. -1.
       23    1    1    2    0    0 -0.17853753423E+02 -0.82327845908E+01  0.20463141110E+02  0.95501448897E+02  0.91188000000E+02 0. -1.
        1    1    1    2  501    0  0.12705974318E+02 -0.19008935864E+01  0.11370090725E+04  0.11370816533E+04  0.00000000000E+00 0. -1.
        5    1    1    2  502    0  0.51477791048E+01  0.10133678177E+02  0.13310604052E+02  0.17503235225E+02  0.00000000000E+00 0. -1.
<scales pt_clust_3="100000.00000" pt_clust_4="12.84738" pt_clust_5="100000.00000"></scales>
<rwgt>
<wgt id='bias'>   0.1000000E+01</wgt>
</rwgt>
<clustering>
<clus scale="   11.366">  3  5 -1 -1</clus>
<clus scale="   12.847">  1  4  2 -1</clus>
<clus scale="   12.847">  1  3  2 -1</clus>
</clustering>
</event>
<event>
 5   3  0.8512900E+003  0.5437200E+02  0.7546771E-02  0.1153577E+00
       21   -1    0    0  503  502  0.00000000000E+00  0.00000000000E+00  0.25129607486E+04  0.25129607486E+04  0.00000000000E+00 0.  1.
       21   -1    0    0  501  503 -0.00000000000E+00 -0.00000000000E+00 -0.72556003554E+01  0.72556003554E+01  0.00000000000E+00 0. -1.
       23    1    1    2    0    0 -0.41115224138E+02  0.20139677879E+01  0.14836555707E+04  0.14870250911E+04  0.91188000000E+02 0. -1.
        3    1    1    2  501    0  0.45917265564E+02 -0.32600245548E+02  0.14434526827E+03  0.15494104607E+03  0.00000000000E+00 0. -1.
       -3    1    1    2    0  502 -0.48020414262E+01  0.30586277760E+02  0.87770430934E+03  0.87825021185E+03  0.00000000000E+00 0.  1.
<scales pt_clust_3="100000.00000" pt_clust_4="54.37200" pt_clust_5="30.96094"></scales>
<rwgt>
<wgt id='bias'>   0.1000000E+01</wgt>
</rwgt>
<clustering>
<clus scale="   30.961">  1  5  2 -1</clus>
<clus scale="   54.372">  2  4  1 -1</clus>
<clus scale="   30.961">  1  3  2 -1</clus>
</clustering>
</event>
<event>
 3   1  0.8512900E+003  0.9118800E+02  0.7546771E-02  0.1180022E+00
       -2   -1    0    0    0  501 -0.00000000000E+00  0.00000000000E+00  0.18471789202E+02  0.18471789202E+02  0.00000000000E+00 0.  1.
        2   -1    0    0  501    0  0.00000000000E+00 -0.00000000000E+00 -0.11253987436E+03  0.11253987436E+03  0.00000000000E+00 0. -1.
       23    1    1    2    0    0  0.00000000000E+00 -0.00000000000E+00 -0.94068085158E+02  0.13101166356E+03  0.91188000000E+02 0.  1.
<scales pt_clust_3="100000.00000"></scales>
<rwgt>
<wgt id='bias'>   0.1000000E+01</wgt>
</rwgt>
<clustering>
<clus scale="   91.188">  2  3  1 -1</clus>
</clustering>
</event>
<event>
 5   3  0.8512900E+003  0.1855649E+03  0.7546771E-02  0.1066031E+00
       21   -1    0    0  501  502  0.00000000000E+00  0.00000000000E+00  0.94109315246E+02  0.94109315246E+02  0.00000000000E+00 0.  1.
       -4   -1    0    0    0  501 -0.00000000000E+00 -0.00000000000E+00 -0.25051217615E+03  0.25051217615E+03  0.00000000000E+00 0.  1.
       23    1    1    2    0    0 -0.11127944477E+03  0.33482859558E+02 -0.97863972996E+02  0.17719149321E+03  0.91188000000E+02 0.  1.
       21    1    1    2  503  502  0.87977633027E+02 -0.39625739343E+02  0.78444681924E+01  0.96808051384E+02  0.00000000000E+00 0.  1.
       -4    1    1    2    0  503  0.23301811743E+02  0.61428797854E+01 -0.66383356105E+02  0.70621946804E+02  0.00000000000E+00 0.  1.
<scales pt_clust_3="100000.00000" pt_clust_4="96.48970" pt_clust_5="100000.00000"></scales>
<rwgt>
<wgt id='bias'>   0.1000000E+01</wgt>
</rwgt>
<clustering>
<clus scale="   24.098">  3  5 -1 -1</clus>
<clus scale="   96.490">  1  4  2 -1</clus>
<clus scale="   96.490">  1  3  2 -1</clus>
</clustering>
</event>
<event>
 5   3  0.8512900E+003  0.1842206E+03  0.7546771E-02  0.1067084E+00
        2   -1    0    0  501    0  0.00000000000E+00  0.00000000000E+00  0.27870264391E+04  0.27870264391E+04  0.00000000000E+00 0.  1.
       -4   -1    0    0    0  501 -0.00000000000E+00 -0.00000000000E+00 -0.58262472874E+02  0.58262472874E+02  0.00000000000E+00 0.  1.
       23    1    1    2    0    0  0.15060141146E+03 -0.53839383762E+02  0.12626297683E+03  0.22324214441E+03  0.91188000000E+02 0.  1.
        2    1    1    2  502    0  0.16470539119E+02  0.48680176106E+02  0.18704191376E+04  0.18711250061E+04  0.00000000000E+00 0.  1.
       -4    1    1    2    0  502 -0.16707195058E+03  0.51592076557E+01  0.73208185189E+03  0.75092176155E+03  0.00000000000E+00 0.  1.
<scales pt_clust_3="100000.00000" pt_clust_4="51.39103" pt_clust_5="160.06864"></scales>
<rwgt>
<wgt id='bias'>   0.1000000E+01</wgt>
</rwgt>
<clustering>
<clus scale="   51.391">  1  4  2 -1</clus>
<clus scale="  160.069">  1  5  2 -1</clus>
<clus scale="   51.391">  1  3  2 -1</clus>
</clustering>
</event>
<event>
 4   2  0.8512900E+003  0.4785694E+03  0.7546771E-02  0.9448242E-01
        1   -1    0    0  502    0 -0.00000000000E+00  0.00000000000E+00  0.24930276862E+03  0.24930276862E+03  0.00000000000E+00 0. -1.
       21   -1    0    0  501  502  0.00000000000E+00 -0.00000000000E+00 -0.22966920249E+03  0.22966920249E+03  0.00000000000E+00 0. -1.
       23    1    1    2    0    0  0.23893348523E+01  0.16223070176E+03 -0.15382588656E+03  0.24145841098E+03  0.91188000000E+02 0. -1.
        1    1    1    2  501    0 -0.23893348523E+01 -0.16223070176E+03  0.17345945269E+03  0.23751356012E+03  0.00000000000E+00 0. -1.
<scales pt_clust_3="100000.00000" pt_clust_4="100000.00000"></scales>
<rwgt>
<wgt id='bias'>   0.1000000E+01</wgt>
</rwgt>
<clustering>
<clus scale="  162.248">  3  4 -1 -1</clus>
<clus scale="  478.569">  2  3  1 -1</clus>
</clustering>
</event>
<event>
 3   1  0.8512900E+003  0.9118800E+02  0.7546771E-02  0.1180022E+00
       -3   -1    0    0    0  501 -0.00000000000E+00  0.00000000000E+00  0.13020586774E+03  0.13020586774E+03  0.00000000000E+00 0.  1.
        3   -1    0    0  501    0  0.00000000000E+00 -0.00000000000E+00 -0.15965584901E+02  0.15965584901E+02  0.00000000000E+00 0. -1.
       23    1    1    2    0    0  0.00000000000E+00 -0.00000000000E+00  0.11424028284E+03  0.14617145264E+03  0.91188000000E+02 0.  1.
<scales pt_clust_3="100000.00000"></scales>
<rwgt>
<wgt id='bias'>   0.1000000E+01</wgt>
</rwgt>
<clustering>
<clus scale="   91.188">  2  3  1 -1</clus>
</clustering>
</event>
<event>
 3   1  0.8512900E+003  0.9118800E+02  0.7546771E-02  0.1180022E+00
        4   -1    0    0  501    0  0.00000000000E+00  0.00000000000E+00  0.44235309567E+02  0.44235309567E+02  0.00000000000E+00 0. -1.
       -4   -1    0    0    0  501 -0.00000000000E+00 -0.00000000000E+00 -0.46994422699E+02  0.46994422699E+02  0.00000000000E+00 0.  1.
       23    1    1    2    0    0  0.00000000000E+00  0.00000000000E+00 -0.27591131327E+01  0.91229732266E+02  0.91188000000E+02 0. -1.
<scales pt_clust_3="100000.00000"></scales>
<rwgt>
<wgt id='bias'>   0.1000000E+01</wgt>
</rwgt>
<clustering>
<clus scale="   91.188">  1  3  2 -1</clus>
</clustering>
</event>
<event>
 3   1  0.8512900E+003  0.9118800E+02  0.7546771E-02  0.1180022E+00
        3   -1    0    0  501    0  0.00000000000E+00  0.00000000000E+00  0.13952765371E+03  0.13952765371E+03  0.00000000000E+00 0. -1.
       -3   -1    0    0    0  501 -0.00000000000E+00 -0.00000000000E+00 -0.14898930647E+02  0.14898930647E+02  0.00000000000E+00 0.  1.
       23    1    1    2    0    0  0.00000000000E+00  0.00000000000E+00  0.12462872306E+03  0.15442658436E+03  0.91188000000E+02 0. -1.
<scales pt_clust_3="100000.00000"></scales>
<rwgt>
<wgt id='bias'>   0.1000000E+01</wgt>
</rwgt>
<clustering>
<clus scale="   91.188">  1  3  2 -1</clus>
</clustering>
</event>
<event>
 3   1  0.8512900E+003  0.9118800E+02  0.7546771E-02  0.1180022E+00
        3   -1    0    0  501    0  0.00000000000E+00  0.00000000000E+00  0.15877937620E+02  0.15877937620E+02  0.00000000000E+00 0. -1.
       -3   -1    0    0    0  501 -0.00000000000E+00 -0.00000000000E+00 -0.13092461287E+03  0.13092461287E+03  0.00000000000E+00 0.  1.
       23    1    1    2    0    0  0.00000000000E+00  0.00000000000E+00 -0.11504667525E+03  0.14680255049E+03  0.91188000000E+02 0. -1.
<scales pt_clust_3="100000.00000"></scales>
<rwgt>
<wgt id='bias'>   0.1000000E+01</wgt>
</rwgt>
<clustering>
<clus scale="   91.188">  1  3  2 -1</clus>
</clustering>
</event>
<event>
 4   2  0.8512900E+003  0.9249956E+02  0.7546771E-02  0.1177485E+00
       -3   -1    0    0    0  501 -0.00000000000E+00  0.00000000000E+00  0.20153892018E+02  0.20153892018E+02  0.00000000000E+00 0.  1.
       21   -1    0    0  501  502  0.00000000000E+00 -0.00000000000E+00 -0.35546482092E+03  0.35546482092E+03  0.00000000000E+00 0. -1.
       23    1    1    2    0    0 -0.99065600874E+01 -0.11948916089E+02 -0.87518734751E+02  0.12734086856E+03  0.91188000000E+02 0.  1.
       -3    1    1    2    0  502  0.99065600874E+01  0.11948916089E+02 -0.24779219415E+03  0.24827784438E+03  0.00000000000E+00 0.  1.
<scales pt_clust_3="100000.00000" pt_clust_4="15.52149"></scales>
<rwgt>
<wgt id='bias'>   0.1000000E+01</wgt>
</rwgt>
<clustering>
<clus scale="   15.521">  2  4  1 -1</clus>
<clus scale="   15.521">  2  3  1 -1</clus>
</clustering>
</event>
<event>
 3   1  0.8512900E+003  0.9118800E+02  0.7546771E-02  0.1180022E+00
       -3   -1    0    0    0  501 -0.00000000000E+00  0.00000000000E+00  0.22638319021E+02  0.22638319021E+02  0.00000000000E+00 0. -1.
        3   -1    0    0  501    0  0.00000000000E+00 -0.00000000000E+00 -0.91827172948E+02  0.91827172948E+02  0.00000000000E+00 0.  1.
       23    1    1    2    0    0  0.00000000000E+00 -0.00000000000E+00 -0.69188853927E+02  0.11446549197E+03  0.91188000000E+02 0. -1.
<scales pt_clust_3="100000.00000"></scales>
<rwgt>
<wgt id='bias'>   0.1000000E+01</wgt>
</rwgt>
<clustering>
<clus scale="   91.188">  2  3  1 -1</clus>
</clustering>
</event>
<event>
 4   2  0.8512900E+003  0.1151954E+03  0.7546771E-02  0.1139880E+00
       -2   -1    0    0    0  501 -0.00000000000E+00  0.00000000000E+00  0.47914847298E+02  0.47914847298E+02  0.00000000000E+00 0. -1.
        2   -1    0    0  502    0  0.00000000000E+00 -0.00000000000E+00 -0.39944054729E+03  0.39944054729E+03  0.00000000000E+00 0.  1.
       23    1    1    2    0    0 -0.31214775730E+02 -0.63090085445E+02 -0.35856456690E+03  0.37661455241E+03  0.91188000000E+02 0.  1.
       21    1    1    2  502  501  0.31214775730E+02  0.63090085445E+02  0.70388669055E+01  0.70740842182E+02  0.00000000000E+00 0. -1.
<scales pt_clust_3="100000.00000" pt_clust_4="70.38978"></scales>
<rwgt>
<wgt id='bias'>   0.1000000E+01</wgt>
</rwgt>
<clustering>
<clus scale="   70.390">  1  4  2 -1</clus>
<clus scale="  115.195">  2  3  1 -1</clus>
</clustering>
</event>
<event>
 5   3  0.8512900E+003  0.1080743E+03  0.7546771E-02  0.1150562E+00
        1   -1    0    0  503    0 -0.00000000000E+00  0.00000000000E+00  0.22977114025E+04  0.22977114025E+04  0.00000000000E+00 0. -1.
       21   -1    0    0  501  502  0.00000000000E+00 -0.00000000000E+00 -0.43451452761E+01  0.43451452761E+01  0.00000000000E+00 0. -1.
       23    1    1    2    0    0 -0.24200880016E+02 -0.55420729540E+02  0.19002448011E+04  0.19033924176E+04  0.91188000000E+02 0. -1.
       21    1    1    2  503  502  0.10949229575E+02  0.23179925248E+01  0.82833444254E+02  0.83586112510E+02  0.00000000000E+00 0. -1.
        1    1    1    2  501    0  0.13251650441E+02  0.53102737015E+02  0.31028801192E+03  0.31507801773E+03  0.00000000000E+00 0. -1.
<scales pt_clust_3="100000.00000" pt_clust_4="11.19190" pt_clust_5="58.00689"></scales>
<rwgt>
<wgt id='bias'>   0.1000000E+01</wgt>
</rwgt>
<clustering>
<clus scale="   11.192">  2  4  1 -1</clus>
<clus scale="   58.007">  2  5  1 -1</clus>
<clus scale="   11.192">  2  3  1 -1</clus>
</clustering>
</event>
<event>
 3   1  0.8512900E+003  0.9118800E+02  0.7546771E-02  0.1180022E+00
       -2   -1    0    0    0  501 -0.00000000000E+00  0.00000000000E+00  0.23124306641E+00  0.23124306641E+00  0.00000000000E+00 0.  1.
        2   -1    0    0  501    0  0.00000000000E+00 -0.00000000000E+00 -0.89897304522E+04  0.89897304522E+04  0.00000000000E+00 0. -1.
       23    1    1    2    0    0  0.00000000000E+00 -0.00000000000E+00 -0.89894992091E+04  0.89899616952E+04  0.91188000000E+02 0.  1.
<scales pt_clust_3="100000.00000"></scales>
<rwgt>
<wgt id='bias'>   0.1000000E+01</wgt>
</rwgt>
<clustering>
<clus scale="   91.188">  2  3  1 -1</clus>
</clustering>
</event>
<event>
 3   1  0.8512900E+003  0.9118800E+02  0.7546771E-02  0.1180022E+00
        2   -1    0    0  501    0  0.00000000000E+00  0.00000000000E+00  0.22422522301E+05  0.22422522301E+05  0.00000000000E+00 0. -1.
       -2   -1    0    0    0  501 -0.00000000000E+00 -0.00000000000E+00 -0.92710927347E-01  0.92710927347E-01  0.00000000000E+00 0.  1.
       23    1    1    2    0    0  0.00000000000E+00  0.00000000000E+00  0.22422429590E+05  0.22422615012E+05  0.91188000000E+02 0. -1.
<scales pt_clust_3="100000.00000"></scales>
<rwgt>
<wgt id='bias'>   0.1000000E+01</wgt>
</rwgt>
<clustering>
<clus scale="   91.188">  1  3  2 -1</clus>
</clustering>
</event>
<event>
 5   3  0.8512900E+003  0.2296803E+03  0.7546771E-02  0.1036056E+00
       21   -1    0    0  501  502  0.00000000000E+00  0.00000000000E+00  0.21903650695E+04  0.21903650695E+04  0.00000000000E+00 0.  1.
       -3   -1    0    0    0  501 -0.00000000000E+00 -0.00000000000E+00 -0.18802545278E+02  0.18802545278E+02  0.00000000000E+00 0.  1.
       23    1    1    2    0    0 -0.94852230814E+01  0.13391293235E+02  0.95591605205E+02  0.13312513858E+03  0.91188000000E+02 0.  1.
       21    1    1    2  503  502  0.74762720894E+01 -0.73226418457E+01  0.14882516391E+04  0.14882884320E+04  0.00000000000E+00 0.  1.
       -3    1    1    2    0  503  0.20089509920E+01 -0.60686513890E+01  0.58771927993E+03  0.58775404415E+03  0.00000000000E+00 0.  1.
<scales pt_clust_3="100000.00000" pt_clust_4="10.46498" pt_clust_5="100000.00000"></scales>
<rwgt>
<wgt id='bias'>   0.1000000E+01</wgt>
</rwgt>
<clustering>
<clus scale="    6.393">  3  5 -1 -1</clus>
<clus scale="   10.465">  1  4  2 -1</clus>
<clus scale="   10.465">  1  3  2 -1</clus>
</clustering>
</event>
<event>
 3   1  0.8512900E+003  0.9118800E+02  0.7546771E-02  0.1180022E+00
       -2   -1    0    0    0  501 -0.00000000000E+00  0.00000000000E+00  0.37227962865E+02  0.37227962865E+02  0.00000000000E+00 0.  1.
        2   -1    0    0  501    0  0.00000000000E+00 -0.00000000000E+00 -0.55840091051E+02  0.55840091051E+02  0.00000000000E+00 0. -1.
       23    1    1    2    0    0  0.00000000000E+00 -0.00000000000E+00 -0.18612128186E+02  0.93068053915E+02  0.91188000000E+02 0.  1.
<scales pt_clust_3="100000.00000"></scales>
<rwgt>
<wgt id='bias'>   0.1000000E+01</wgt>
</rwgt>
<clustering>
<clus scale="   91.188">  2  3  1 -1</clus>
</clustering>
</event>
<event>
 3   1  0.8512900E+003  0.9118800E+02  0.7546771E-02  0.1180022E+00
       -1   -1    0    0    0  501 -0.00000000000E+00  0.00000000000E+00  0.91440834061E+03  0.91440834061E+03  0.00000000000E+00 0.  1.
        1   -1    0    0  501    0  0.00000000000E+00 -0.00000000000E+00 -0.22733966256E+01  0.22733966256E+01  0.00000000000E+00 0. -1.
       23    1    1    2    0    0  0.00000000000E+00 -0.00000000000E+00  0.91213494399E+03  0.91668173724E+03  0.91188000000E+02 0.  1.
<scales pt_clust_3="100000.00000"></scales>
<rwgt>
<wgt id='bias'>   0.1000000E+01</wgt>
</rwgt>
<clustering>
<clus scale="   91.188">  2  3  1 -1</clus>
</clustering>
</event>
<event>
 3   1  0.8512900E+003  0.9118800E+02  0.7546771E-02  0.1180022E+00
       -2   -1    0    0    0  501 -0.00000000000E+00  0.00000000000E+00  0.14024192313E+00  0.14024192313E+00  0.00000000000E+00 0.  1.
        2   -1    0    0  501    0  0.00000000000E+00 -0.00000000000E+00 -0.14823048555E+05  0.14823048555E+05  0.00000000000E+00 0. -1.
       23    1    1    2    0    0  0.00000000000E+00 -0.00000000000E+00 -0.14822908313E+05  0.14823188797E+05  0.91188000000E+02 0.  1.
<scales pt_clust_3="100000.00000"></scales>
<rwgt>
<wgt id='bias'>   0.1000000E+01</wgt>
</rwgt>
<clustering>
<clus scale="   91.188">  2  3  1 -1</clus>
</clustering>
</event>
<event>
 5   3  0.8512900E+003  0.4137946E+02  0.7546771E-02  0.1163597E+00
       -2   -1    0    0    0  501 -0.00000000000E+00  0.00000000000E+00  0.11750606468E+03  0.11750606468E+03  0.00000000000E+00 0.  1.
        2   -1    0    0  502    0  0.00000000000E+00 -0.00000000000E+00 -0.58424547028E+04  0.58424547028E+04  0.00000000000E+00 0. -1.
       23    1    1    2    0    0  0.12837803248E+02  0.21622250561E+02 -0.53803651013E+04  0.53811965403E+04  0.91188000000E+02 0. -1.
       21    1    1    2  502  503  0.97484440731E+01  0.13062567907E+02 -0.45786653131E+03  0.45815654894E+03  0.00000000000E+00 0. -1.
       21    1    1    2  503  501 -0.22586247321E+02 -0.34684818467E+02  0.11328299450E+03  0.12060767821E+03  0.00000000000E+00 0.  1.
<scales pt_clust_3="100000.00000" pt_clust_4="16.29917" pt_clust_5="41.37946"></scales>
<rwgt>
<wgt id='bias'>   0.1000000E+01</wgt>
</rwgt>
<clustering>
<clus scale="   16.299">  2  4  1 -1</clus>
<clus scale="   41.379">  1  5  2 -1</clus>
<clus scale="   16.299">  2  3  1 -1</clus>
</clustering>
</event>
<event>
 4   2  0.8512900E+003  0.9193089E+02  0.7546771E-02  0.1178579E+00
       -3   -1    0    0    0  501 -0.00000000000E+00  0.00000000000E+00  0.89806174001E+01  0.89806174001E+01  0.00000000000E+00 0.  1.
       21   -1    0    0  501  502  0.00000000000E+00 -0.00000000000E+00 -0.53185797886E+03  0.53185797886E+03  0.00000000000E+00 0. -1.
       23    1    1    2    0    0 -0.10724916523E+02  0.45839819353E+01 -0.22947496664E+03  0.24720446676E+03  0.91188000000E+02 0.  1.
       -3    1    1    2    0  502  0.10724916523E+02 -0.45839819353E+01 -0.29340239482E+03  0.29363412951E+03  0.00000000000E+00 0.  1.
<scales pt_clust_3="100000.00000" pt_clust_4="11.66348"></scales>
<rwgt>
<wgt id='bias'>   0.1000000E+01</wgt>
</rwgt>
<clustering>
<clus scale="   11.663">  2  4  1 -1</clus>
<clus scale="   11.663">  2  3  1 -1</clus>
</clustering>
</event>
<event>
 3   1  0.8512900E+003  0.9118800E+02  0.7546771E-02  0.1180022E+00
       -3   -1    0    0    0  501 -0.00000000000E+00  0.00000000000E+00  0.38322760115E+03  0.38322760115E+03  0.00000000000E+00 0.  1.
        3   -1    0    0  501    0  0.00000000000E+00 -0.00000000000E+00 -0.54244862054E+01  0.54244862054E+01  0.00000000000E+00 0. -1.
       23    1    1    2    0    0  0.00000000000E+00 -0.00000000000E+00  0.37780311495E+03  0.38865208736E+03  0.91188000000E+02 0.  1.
<scales pt_clust_3="100000.00000"></scales>
<rwgt>
<wgt id='bias'>   0.1000000E+01</wgt>
</rwgt>
<clustering>
<clus scale="   91.188">  2  3  1 -1</clus>
</clustering>
</event>
<event>
 4   2  0.8512900E+003  0.9918990E+02  0.7546771E-02  0.1165243E+00
       21   -1    0    0  501  502  0.00000000000E+00  0.00000000000E+00  0.29134361336E+03  0.29134361336E+03  0.00000000000E+00 0.  1.
       -4   -1    0    0    0  501 -0.00000000000E+00 -0.00000000000E+00 -0.71665022553E+02  0.71665022553E+02  0.00000000000E+00 0.  1.
       23    1    1    2    0    0 -0.38146453666E+02 -0.82603805058E+01 -0.35130716351E+02  0.10522739372E+03  0.91188000000E+02 0.  1.
       -4    1    1    2    0  502  0.38146453666E+02  0.82603805058E+01  0.25480930715E+03  0.25778124219E+03  0.00000000000E+00 0.  1.
<scales pt_clust_3="100000.00000" pt_clust_4="39.03058"></scales>
<rwgt>
<wgt id='bias'>   0.1000000E+01</wgt>
</rwgt>
<clustering>
<clus scale="   39.031">  1  4  2 -1</clus>
<clus scale="   39.031">  1  3  2 -1</clus>
</clustering>
</event>
<event>
 4   2  0.8512900E+003  0.9201081E+02  0.7546771E-02  0.1178425E+00
        1   -1    0    0  502    0  0.00000000000E+00  0.00000000000E+00  0.74164658685E+01  0.74164658685E+01  0.00000000000E+00 0. -1.
       -1   -1    0    0    0  501 -0.00000000000E+00 -0.00000000000E+00 -0.36791976040E+03  0.36791976040E+03  0.00000000000E+00 0.  1.
       23    1    1    2    0    0 -0.95766583336E+01  0.76828471329E+01 -0.32478580675E+03  0.33756748974E+03  0.91188000000E+02 0.  0.
       21    1    1    2  502  501  0.95766583336E+01 -0.76828471329E+01 -0.35717487788E+02  0.37768736526E+02  0.00000000000E+00 0.  1.
<scales pt_clust_3="100000.00000" pt_clust_4="12.27756"></scales>
<rwgt>
<wgt id='bias'>   0.1000000E+01</wgt>
</rwgt>
<clustering>
<clus scale="   12.278">  1  4  2 -1</clus>
<clus scale="   12.278">  1  3  2 -1</clus>
</clustering>
</event>
<event>
 3   1  0.8512900E+003  0.9118800E+02  0.7546771E-02  0.1180022E+00
       -2   -1    0    0    0  501 -0.00000000000E+00  0.00000000000E+00  0.21507377892E+00  0.21507377892E+00  0.00000000000E+00 0.  1.
        2   -1    0    0  501    0  0.00000000000E+00 -0.00000000000E+00 -0.96655800928E+04  0.96655800928E+04  0.00000000000E+00 0. -1.
       23    1    1    2    0    0  0.00000000000E+00 -0.00000000000E+00 -0.96653650190E+04  0.96657951666E+04  0.91188000000E+02 0.  1.
<scales pt_clust_3="100000.00000"></scales>
<rwgt>
<wgt id='bias'>   0.1000000E+01</wgt>
</rwgt>
<clustering>
<clus scale="   91.188">  2  3  1 -1</clus>
</clustering>
</event>
<event>
 5   3  0.8512900E+003  0.1617999E+03  0.7546771E-02  0.1086240E+00
       21   -1    0    0  503  502  0.00000000000E+00  0.00000000000E+00  0.20758152275E+03  0.20758152275E+03  0.00000000000E+00 0.  1.
       -2   -1    0    0    0  501 -0.00000000000E+00 -0.00000000000E+00 -0.32024404169E+04  0.32024404169E+04  0.00000000000E+00 0.  1.
       23    1    1    2    0    0  0.56751621296E+02  0.23621103059E+02 -0.26522630468E+04  0.26545419989E+04  0.91188000000E+02 0.  1.
       21    1    1    2  503  501 -0.13439691701E+02 -0.33930145676E+02  0.20391679497E+03  0.20715679899E+03  0.00000000000E+00 0.  1.
       -2    1    1    2    0  502 -0.43311929595E+02  0.10309042617E+02 -0.54651264237E+03  0.54832314183E+03  0.00000000000E+00 0.  1.
<scales pt_clust_3="100000.00000" pt_clust_4="36.49493" pt_clust_5="100000.00000"></scales>
<rwgt>
<wgt id='bias'>   0.1000000E+01</wgt>
</rwgt>
<clustering>
<clus scale="   36.495">  1  4  2 -1</clus>
<clus scale="   49.487">  3  5 -1 -1</clus>
<clus scale="   36.495">  1  3  2 -1</clus>
</clustering>
</event>
<event>
 3   1  0.8512900E+003  0.9118800E+02  0.7546771E-02  0.1180022E+00
        5   -1    0    0  501    0  0.00000000000E+00  0.00000000000E+00  0.18200878233E+04  0.18200878233E+04  0.00000000000E+00 0. -1.
       -5   -1    0    0    0  501 -0.00000000000E+00 -0.00000000000E+00 -0.11421497410E+01  0.11421497410E+01  0.00000000000E+00 0.  1.
       23    1    1    2    0    0  0.00000000000E+00  0.00000000000E+00  0.18189456736E+04  0.18212299730E+04  0.91188000000E+02 0. -1.
<scales pt_clust_3="100000.00000"></scales>
<rwgt>
<wgt id='bias'>   0.1000000E+01</wgt>
</rwgt>
<clustering>
<clus scale="   91.188">  1  3  2 -1</clus>
</clustering>
</event>
<event>
 3   1  0.8512900E+003  0.9118800E+02  0.7546771E-02  0.1180022E+00
       -1   -1    0    0    0  501 -0.00000000000E+00  0.00000000000E+00  0.16273822153E+04  0.16273822153E+04  0.00000000000E+00 0.  1.
        1   -1    0    0  501    0  0.00000000000E+00 -0.00000000000E+00 -0.12773968011E+01  0.12773968011E+01  0.00000000000E+00 0. -1.
       23    1    1    2    0    0  0.00000000000E+00 -0.00000000000E+00  0.16261048185E+04  0.16286596121E+04  0.91188000000E+02 0.  1.
<scales pt_clust_3="100000.00000"></scales>
<rwgt>
<wgt id='bias'>   0.1000000E+01</wgt>
</rwgt>
<clustering>
<clus scale="   91.188">  2  3  1 -1</clus>
</clustering>
</event>
<event>
 5   3  0.8512900E+003  0.9255205E+02  0.7546771E-02  0.1177385E+00
       -4   -1    0    0    0  501  0.00000000000E+00  0.00000000000E+00  0.40841572320E+01  0.40841572320E+01  0.00000000000E+00 0.  1.
       -4   -1    0    0    0  502 -0.00000000000E+00 -0.00000000000E+00 -0.18448362522E+04  0.18448362522E+04  0.00000000000E+00 0. -1.
       23    1    1    2    0    0 -0.18389668481E+01 -0.26036796529E+02 -0.67198752773E+03  0.67864849911E+03  0.91188000000E+02 0.  1.
       -4    1    1    2    0  502  0.66416169059E+01  0.13275842793E+02 -0.76758755741E+02  0.78180980167E+02  0.00000000000E+00 0.  1.
       -4    1    1    2    0  501 -0.48026500578E+01  0.12760953735E+02 -0.10920058115E+04  0.10920909301E+04  0.00000000000E+00 0. -1.
<scales pt_clust_3="100000.00000" pt_clust_4="15.83135" pt_clust_5="13.63479"></scales>
<rwgt>
<wgt id='bias'>   0.1000000E+01</wgt>
</rwgt>
<clustering>
<clus scale="   13.635">  2  5  1 -1</clus>
<clus scale="   15.831">  2  4  1 -1</clus>
<clus scale="   92.552">  1  3  2 -1</clus>
</clustering>
</event>
<event>
 5   3  0.8512900E+003  0.2978826E+03  0.7546771E-02  0.1001762E+00
        1   -1    0    0  502    0 -0.00000000000E+00  0.00000000000E+00  0.45613873909E+04  0.45613873909E+04  0.00000000000E+00 0. -1.
       21   -1    0    0  503  502  0.00000000000E+00 -0.00000000000E+00 -0.52004655675E+01  0.52004655675E+01  0.00000000000E+00 0. -1.
       23    1    1    2    0    0 -0.88354713595E+02  0.83853077103E+02  0.33268825747E+04  0.33303604626E+04  0.91188000000E+02 0. -1.
       21    1    1    2  503  501  0.85617227451E+01  0.54047705764E+01  0.13933786458E+03  0.13970524380E+03  0.00000000000E+00 0. -1.
        1    1    1    2  501    0  0.79792990850E+02 -0.89257847679E+02  0.10899664861E+04  0.10965221501E+04  0.00000000000E+00 0. -1.
<scales pt_clust_3="100000.00000" pt_clust_4="10.12495" pt_clust_5="100000.00000"></scales>
<rwgt>
<wgt id='bias'>   0.1000000E+01</wgt>
</rwgt>
<clustering>
<clus scale="   10.125">  2  4  1 -1</clus>
<clus scale="  120.996">  3  5 -1 -1</clus>
<clus scale="   10.125">  2  3  1 -1</clus>
</clustering>
</event>
<event>
 3   1  0.8512900E+003  0.9118800E+02  0.7546771E-02  0.1180022E+00
        3   -1    0    0  501    0  0.00000000000E+00  0.00000000000E+00  0.85608199331E+01  0.85608199331E+01  0.00000000000E+00 0. -1.
       -3   -1    0    0    0  501 -0.00000000000E+00 -0.00000000000E+00 -0.24282870709E+03  0.24282870709E+03  0.00000000000E+00 0.  1.
       23    1    1    2    0    0  0.00000000000E+00  0.00000000000E+00 -0.23426788716E+03  0.25138952703E+03  0.91188000000E+02 0. -1.
<scales pt_clust_3="100000.00000"></scales>
<rwgt>
<wgt id='bias'>   0.1000000E+01</wgt>
</rwgt>
<clustering>
<clus scale="   91.188">  1  3  2 -1</clus>
</clustering>
</event>
<event>
 4   2  0.8512900E+003  0.9310894E+02  0.7546771E-02  0.1176323E+00
        4   -1    0    0  502    0 -0.00000000000E+00  0.00000000000E+00  0.73063244266E+01  0.73063244266E+01  0.00000000000E+00 0. -1.
       21   -1    0    0  501  502  0.00000000000E+00 -0.00000000000E+00 -0.45022147029E+03  0.45022147029E+03  0.00000000000E+00 0. -1.
       23    1    1    2    0    0  0.14141444134E+02  0.12411383112E+02 -0.32324732279E+03  0.33638981244E+03  0.91188000000E+02 0. -1.
        4    1    1    2  501    0 -0.14141444134E+02 -0.12411383112E+02 -0.11966782307E+03  0.12113798228E+03  0.00000000000E+00 0. -1.
<scales pt_clust_3="100000.00000" pt_clust_4="18.81550"></scales>
<rwgt>
<wgt id='bias'>   0.1000000E+01</wgt>
</rwgt>
<clustering>
<clus scale="   18.815">  2  4  1 -1</clus>
<clus scale="   18.815">  2  3  1 -1</clus>
</clustering>
</event>
<event>
 3   1  0.8512900E+003  0.9118800E+02  0.7546771E-02  0.1180022E+00
       -2   -1    0    0    0  501 -0.00000000000E+00  0.00000000000E+00  0.16290069892E+00  0.16290069892E+00  0.00000000000E+00 0.  1.
        2   -1    0    0  501    0  0.00000000000E+00 -0.00000000000E+00 -0.12761227237E+05  0.12761227237E+05  0.00000000000E+00 0. -1.
       23    1    1    2    0    0  0.00000000000E+00 -0.00000000000E+00 -0.12761064336E+05  0.12761390137E+05  0.91188000000E+02 0.  1.
<scales pt_clust_3="100000.00000"></scales>
<rwgt>
<wgt id='bias'>   0.1000000E+01</wgt>
</rwgt>
<clustering>
<clus scale="   91.188">  2  3  1 -1</clus>
</clustering>
</event>
<event>
 4   2  0.8512900E+003  0.9582246E+02  0.7546771E-02  0.1171264E+00
       -2   -1    0    0    0  501 -0.00000000000E+00  0.00000000000E+00  0.24599728358E+04  0.24599728358E+04  0.00000000000E+00 0.  1.
       21   -1    0    0  501  502  0.00000000000E+00 -0.00000000000E+00 -0.20102091539E+01  0.20102091539E+01  0.00000000000E+00 0.  1.
       23    1    1    2    0    0  0.59814067284E+01 -0.28825593453E+02  0.22390845916E+04  0.22411340325E+04  0.91188000000E+02 0.  1.
       -2    1    1    2    0  502 -0.59814067284E+01  0.28825593453E+02  0.21887803503E+03  0.22084901241E+03  0.00000000000E+00 0.  1.
<scales pt_clust_3="100000.00000" pt_clust_4="29.43963"></scales>
<rwgt>
<wgt id='bias'>   0.1000000E+01</wgt>
</rwgt>
<clustering>
<clus scale="   29.440">  2  4  1 -1</clus>
<clus scale="   29.440">  2  3  1 -1</clus>
</clustering>
</event>
<event>
 5   3  0.8512900E+003  0.9821030E+02  0.7546771E-02  0.1166967E+00
       21   -1    0    0  503  502  0.00000000000E+00  0.00000000000E+00  0.39868656678E+02  0.39868656678E+02  0.00000000000E+00 0.  1.
       -1   -1    0    0    0  501 -0.00000000000E+00 -0.00000000000E+00 -0.40244701474E+03  0.40244701474E+03  0.00000000000E+00 0.  1.
       23    1    1    2    0    0 -0.21331961395E+02  0.26535939812E+02 -0.31131906460E+03  0.32618096205E+03  0.91188000000E+02 0.  1.
       21    1    1    2  503  501  0.15058959573E+02 -0.35353412243E+02 -0.78183891765E+02  0.87116915419E+02  0.00000000000E+00 0. -1.
       -1    1    1    2    0  502  0.62730018225E+01  0.88174724309E+01  0.26924598301E+02  0.29017793948E+02  0.00000000000E+00 0.  1.
<scales pt_clust_3="100000.00000" pt_clust_4="36.46932" pt_clust_5="10.82120"></scales>
<rwgt>
<wgt id='bias'>   0.1000000E+01</wgt>
</rwgt>
<clustering>
<clus scale="   10.821">  1  5  2 -1</clus>
<clus scale="   36.469">  1  4  2 -1</clus>
<clus scale="   10.821">  1  3  2 -1</clus>
</clustering>
</event>
<event>
 5   3  0.8512900E+003  0.2332667E+02  0.7546771E-02  0.1174407E+00
       -1   -1    0    0    0  501 -0.00000000000E+00  0.00000000000E+00  0.37129116270E+03  0.37129116270E+03  0.00000000000E+00 0.  1.
       21   -1    0    0  503  502  0.00000000000E+00 -0.00000000000E+00 -0.35656893182E+02  0.35656893182E+02  0.00000000000E+00 0.  1.
       23    1    1    2    0    0  0.27284407096E+02  0.67756596697E+01  0.19441760128E+03  0.21657285948E+03  0.91188000000E+02 0.  0.
       21    1    1    2  503  501 -0.22745862118E+02  0.42956303649E+01  0.16347437297E+03  0.16510510986E+03  0.00000000000E+00 0. -1.
       -1    1    1    2    0  502 -0.45385449784E+01 -0.11071290035E+02 -0.22257704732E+02  0.25270086535E+02  0.00000000000E+00 0.  1.
<scales pt_clust_3="100000.00000" pt_clust_4="23.32667" pt_clust_5="11.96544"></scales>
<rwgt>
<wgt id='bias'>   0.1000000E+01</wgt>
</rwgt>
<clustering>
<clus scale="   11.965">  2  5  1 -1</clus>
<clus scale="   23.327">  1  4  2 -1</clus>
<clus scale="   11.965">  2  3  1 -1</clus>
</clustering>
</event>
<event>
 4   2  0.8512900E+003  0.1145452E+03  0.7546771E-02  0.1140819E+00
       -2   -1    0    0    0  501 -0.00000000000E+00  0.00000000000E+00  0.68975006555E+02  0.68975006555E+02  0.00000000000E+00 0.  1.
       21   -1    0    0  501  502  0.00000000000E+00 -0.00000000000E+00 -0.38297546561E+03  0.38297546561E+03  0.00000000000E+00 0.  1.
       23    1    1    2    0    0  0.66942748708E+02  0.18000674868E+02  0.15183171140E+02  0.11554711563E+03  0.91188000000E+02 0.  1.
       -2    1    1    2    0  502 -0.66942748708E+02 -0.18000674868E+02 -0.32918363019E+03  0.33640335653E+03  0.00000000000E+00 0.  1.
<scales pt_clust_3="100000.00000" pt_clust_4="69.32067"></scales>
<rwgt>
<wgt id='bias'>   0.1000000E+01</wgt>
</rwgt>
<clustering>
<clus scale="   69.321">  2  4  1 -1</clus>
<clus scale="   69.321">  2  3  1 -1</clus>
</clustering>
</event>
<event>
 5   3  0.8512900E+003  0.1650125E+03  0.7546771E-02  0.1083291E+00
        2   -1    0    0  502    0 -0.00000000000E+00  0.00000000000E+00  0.13982763003E+04  0.13982763003E+04  0.00000000000E+00 0. -1.
       21   -1    0    0  503  502  0.00000000000E+00 -0.00000000000E+00 -0.12567176057E+03  0.12567176057E+03  0.00000000000E+00 0.  1.
       23    1    1    2    0    0  0.18148297298E+02 -0.18512289445E+02  0.12671922844E+04  0.12707334900E+04  0.91188000000E+02 0. -1.
       21    1    1    2  503  501  0.31488276720E+01 -0.15301836029E+02 -0.12029657684E+03  0.12130675043E+03  0.00000000000E+00 0.  1.
        2    1    1    2  501    0 -0.21297124970E+02  0.33814125474E+02  0.12570883217E+03  0.13190782046E+03  0.00000000000E+00 0. -1.
<scales pt_clust_3="100000.00000" pt_clust_4="15.62246" pt_clust_5="100000.00000"></scales>
<rwgt>
<wgt id='bias'>   0.1000000E+01</wgt>
</rwgt>
<clustering>
<clus scale="   15.622">  2  4  1 -1</clus>
<clus scale="   30.852">  3  5 -1 -1</clus>
<clus scale="   15.622">  2  3  1 -1</clus>
</clustering>
</event>
<event>
 3   1  0.8512900E+003  0.9118800E+02  0.7546771E-02  0.1180022E+00
        1   -1    0    0  501    0  0.00000000000E+00  0.00000000000E+00  0.16783898612E+03  0.16783898612E+03  0.00000000000E+00 0. -1.
       -1   -1    0    0    0  501 -0.00000000000E+00 -0.00000000000E+00 -0.12385756635E+02  0.12385756635E+02  0.00000000000E+00 0.  1.
       23    1    1    2    0    0  0.00000000000E+00  0.00000000000E+00  0.15545322949E+03  0.18022474276E+03  0.91188000000E+02 0. -1.
<scales pt_clust_3="100000.00000"></scales>
<rwgt>
<wgt id='bias'>   0.1000000E+01</wgt>
</rwgt>
<clustering>
<clus scale="   91.188">  1  3  2 -1</clus>
</clustering>
</event>
<event>
 3   1  0.8512900E+003  0.9118800E+02  0.7546771E-02  0.1180022E+00
       -2   -1    0    0    0  501 -0.00000000000E+00  0.00000000000E+00  0.20192253916E+01  0.20192253916E+01  0.00000000000E+00 0.  1.
        2   -1    0    0  501    0  0.00000000000E+00 -0.00000000000E+00 -0.10295100511E+04  0.10295100511E+04  0.00000000000E+00 0. -1.
       23    1    1    2    0    0  0.00000000000E+00 -0.00000000000E+00 -0.10274908257E+04  0.10315292765E+04  0.91188000000E+02 0.  1.
<scales pt_clust_3="100000.00000"></scales>
<rwgt>
<wgt id='bias'>   0.1000000E+01</wgt>
</rwgt>
<clustering>
<clus scale="   91.188">  2  3  1 -1</clus>
</clustering>
</event>
<event>
 4   2  0.8512900E+003  0.9479532E+02  0.7546771E-02  0.1173157E+00
       21   -1    0    0  501  502  0.00000000000E+00  0.00000000000E+00  0.16613111420E+02  0.16613111420E+02  0.00000000000E+00 0.  1.
        1   -1    0    0  502    0 -0.00000000000E+00 -0.00000000000E+00 -0.37816091874E+03  0.37816091874E+03  0.00000000000E+00 0. -1.
       23    1    1    2    0    0 -0.22342833907E+02  0.13103389878E+02 -0.35584075236E+03  0.36825099245E+03  0.91188000000E+02 0. -1.
        1    1    1    2  501    0  0.22342833907E+02 -0.13103389878E+02 -0.57070549611E+01  0.26523037715E+02  0.00000000000E+00 0. -1.
<scales pt_clust_3="100000.00000" pt_clust_4="25.90176"></scales>
<rwgt>
<wgt id='bias'>   0.1000000E+01</wgt>
</rwgt>
<clustering>
<clus scale="   25.902">  1  4  2 -1</clus>
<clus scale="   25.902">  1  3  2 -1</clus>
</clustering>
</event>
<event>
 3   1  0.8512900E+003  0.9118800E+02  0.7546771E-02  0.1180022E+00
        3   -1    0    0  501    0  0.00000000000E+00  0.00000000000E+00  0.65141149140E+02  0.65141149140E+02  0.00000000000E+00 0. -1.
       -3   -1    0    0    0  501 -0.00000000000E+00 -0.00000000000E+00 -0.31912437276E+02  0.31912437276E+02  0.00000000000E+00 0.  1.
       23    1    1    2    0    0  0.00000000000E+00  0.00000000000E+00  0.33228711864E+02  0.97053586416E+02  0.91188000000E+02 0. -1.
<scales pt_clust_3="100000.00000"></scales>
<rwgt>
<wgt id='bias'>   0.1000000E+01</wgt>
</rwgt>
<clustering>
<clus scale="   91.188">  1  3  2 -1</clus>
</clustering>
</event>
<event>
 5   3  0.8512900E+003  0.1518333E+03  0.7546771E-02  0.1095887E+00
       21   -1    0    0  503  502  0.00000000000E+00  0.00000000000E+00  0.42027352480E+02  0.42027352480E+02  0.00000000000E+00 0.  1.
        1   -1    0    0  502    0 -0.00000000000E+00 -0.00000000000E+00 -0.30446929689E+03  0.30446929689E+03  0.00000000000E+00 0. -1.
       23    1    1    2    0    0  0.14567252896E+01 -0.10903919175E+02 -0.29359082029E+03  0.30762288375E+03  0.91188000000E+02 0. -1.
       21    1    1    2  503  501  0.87393034187E+01  0.64391402114E+01  0.21738499991E+02  0.24298154925E+02  0.00000000000E+00 0.  1.
        1    1    1    2  501    0 -0.10196028708E+02  0.44647789631E+01  0.94103758941E+01  0.14575610693E+02  0.00000000000E+00 0. -1.
<scales pt_clust_3="100000.00000" pt_clust_4="10.85532" pt_clust_5="100000.00000"></scales>
<rwgt>
<wgt id='bias'>   0.1000000E+01</wgt>
</rwgt>
<clustering>
<clus scale="   10.855">  1  4  2 -1</clus>
<clus scale="    9.728">  3  5 -1 -1</clus>
<clus scale="   10.855">  1  3  2 -1</clus>
</clustering>
</event>
<event>
 3   1  0.8512900E+003  0.9118800E+02  0.7546771E-02  0.1180022E+00
        3   -1    0    0  501    0  0.00000000000E+00  0.00000000000E+00  0.12416567405E+04  0.12416567405E+04  0.00000000000E+00 0. -1.
       -3   -1    0    0    0  501 -0.00000000000E+00 -0.00000000000E+00 -0.16742250642E+01  0.16742250642E+01  0.00000000000E+00 0.  1.
       23    1    1    2    0    0  0.00000000000E+00  0.00000000000E+00  0.12399825154E+04  0.12433309655E+04  0.91188000000E+02 0. -1.
<scales pt_clust_3="100000.00000"></scales>
<rwgt>
<wgt id='bias'>   0.1000000E+01</wgt>
</rwgt>
<clustering>
<clus scale="   91.188">  1  3  2 -1</clus>
</clustering>
</event>
<event>
 3   1  0.8512900E+003  0.9118800E+02  0.7546771E-02  0.1180022E+00
        3   -1    0    0  501    0  0.00000000000E+00  0.00000000000E+00  0.19790102392E+01  0.19790102392E+01  0.00000000000E+00 0. -1.
       -3   -1    0    0    0  501 -0.00000000000E+00 -0.00000000000E+00 -0.10504305611E+04  0.10504305611E+04  0.00000000000E+00 0.  1.
       23    1    1    2    0    0  0.00000000000E+00  0.00000000000E+00 -0.10484515509E+04  0.10524095713E+04  0.91188000000E+02 0. -1.
<scales pt_clust_3="100000.00000"></scales>
<rwgt>
<wgt id='bias'>   0.1000000E+01</wgt>
</rwgt>
<clustering>
<clus scale="   91.188">  1  3  2 -1</clus>
</clustering>
</event>
<event>
 3   1  0.8512900E+003  0.9118800E+02  0.7546771E-02  0.1180022E+00
       -5   -1    0    0    0  501 -0.00000000000E+00  0.00000000000E+00  0.19481762643E+02  0.19481762643E+02  0.00000000000E+00 0.  1.
        5   -1    0    0  501    0  0.00000000000E+00 -0.00000000000E+00 -0.10670558276E+03  0.10670558276E+03  0.00000000000E+00 0. -1.
       23    1    1    2    0    0  0.00000000000E+00 -0.00000000000E+00 -0.87223820116E+02  0.12618734540E+03  0.91188000000E+02 0.  1.
<scales pt_clust_3="100000.00000"></scales>
<rwgt>
<wgt id='bias'>   0.1000000E+01</wgt>
</rwgt>
<clustering>
<clus scale="   91.188">  2  3  1 -1</clus>
</clustering>
</event>
<event>
 3   1  0.8512900E+003  0.9118800E+02  0.7546771E-02  0.1180022E+00
        5   -1    0    0  501    0  0.00000000000E+00  0.00000000000E+00  0.24298806521E+02  0.24298806521E+02  0.00000000000E+00 0. -1.
       -5   -1    0    0    0  501 -0.00000000000E+00 -0.00000000000E+00 -0.85552055167E+02  0.85552055167E+02  0.00000000000E+00 0.  1.
       23    1    1    2    0    0  0.00000000000E+00  0.00000000000E+00 -0.61253248646E+02  0.10985086169E+03  0.91188000000E+02 0. -1.
<scales pt_clust_3="100000.00000"></scales>
<rwgt>
<wgt id='bias'>   0.1000000E+01</wgt>
</rwgt>
<clustering>
<clus scale="   91.188">  1  3  2 -1</clus>
</clustering>
</event>
<event>
 4   2  0.8512900E+003  0.9193840E+02  0.7546771E-02  0.1178565E+00
       -1   -1    0    0    0  501 -0.00000000000E+00  0.00000000000E+00  0.58342761769E+04  0.58342761769E+04  0.00000000000E+00 0.  1.
        1   -1    0    0  502    0  0.00000000000E+00 -0.00000000000E+00 -0.67583036259E+00  0.67583036259E+00  0.00000000000E+00 0. -1.
       23    1    1    2    0    0 -0.63787464117E+01  0.98351267195E+01  0.31873487059E+04  0.31886744020E+04  0.91188000000E+02 0. -1.
       21    1    1    2  502  501  0.63787464117E+01 -0.98351267195E+01  0.26462516407E+04  0.26462776052E+04  0.00000000000E+00 0. -1.
<scales pt_clust_3="100000.00000" pt_clust_4="11.72255"></scales>
<rwgt>
<wgt id='bias'>   0.1000000E+01</wgt>
</rwgt>
<clustering>
<clus scale="   11.723">  1  4  2 -1</clus>
<clus scale="   91.938">  2  3  1 -1</clus>
</clustering>
</event>
<event>
 4   2  0.8512900E+003  0.9195700E+02  0.7546771E-02  0.1178529E+00
        3   -1    0    0  502    0 -0.00000000000E+00  0.00000000000E+00  0.89314349435E+01  0.89314349435E+01  0.00000000000E+00 0.  1.
       21   -1    0    0  501  502  0.00000000000E+00 -0.00000000000E+00 -0.30816788570E+03  0.30816788570E+03  0.00000000000E+00 0. -1.
       23    1    1    2    0    0  0.89993310146E+01  0.77363078447E+01 -0.24781668170E+03  0.26432782201E+03  0.91188000000E+02 0. -1.
        3    1    1    2  501    0 -0.89993310146E+01 -0.77363078447E+01 -0.51419769058E+02  0.52771498631E+02  0.00000000000E+00 0.  1.
<scales pt_clust_3="100000.00000" pt_clust_4="11.86754"></scales>
<rwgt>
<wgt id='bias'>   0.1000000E+01</wgt>
</rwgt>
<clustering>
<clus scale="   11.868">  2  4  1 -1</clus>
<clus scale="   11.868">  2  3  1 -1</clus>
</clustering>
</event>
<event>
 5   3  0.8512900E+003  0.9263515E+02  0.7546771E-02  0.1177226E+00
        2   -1    0    0  503    0 -0.00000000000E+00  0.00000000000E+00  0.73030401301E+01  0.73030401301E+01  0.00000000000E+00 0. -1.
       21   -1    0    0  501  502  0.00000000000E+00 -0.00000000000E+00 -0.11704750251E+04  0.11704750251E+04  0.00000000000E+00 0. -1.
       23    1    1    2    0    0 -0.11470557745E+01 -0.15301266690E+02 -0.29736062952E+03  0.31140655072E+03  0.91188000000E+02 0. -1.
       21    1    1    2  503  502 -0.10071505159E+02 -0.13659599650E+01 -0.20119516722E+03  0.20145172220E+03  0.00000000000E+00 0. -1.
        2    1    1    2  501    0  0.11218560933E+02  0.16667226655E+02 -0.66461618827E+03  0.66491979235E+03  0.00000000000E+00 0. -1.
<scales pt_clust_3="100000.00000" pt_clust_4="10.16371" pt_clust_5="16.31011"></scales>
<rwgt>
<wgt id='bias'>   0.1000000E+01</wgt>
</rwgt>
<clustering>
<clus scale="   10.164">  2  4  1 -1</clus>
<clus scale="   16.310">  2  5  1 -1</clus>
<clus scale="   10.164">  2  3  1 -1</clus>
</clustering>
</event>
<event>
 3   1  0.8512900E+003  0.9118800E+02  0.7546771E-02  0.1180022E+00
        1   -1    0    0  501    0  0.00000000000E+00  0.00000000000E+00  0.20116229024E+00  0.20116229024E+00  0.00000000000E+00 0.  1.
       -1   -1    0    0    0  501 -0.00000000000E+00 -0.00000000000E+00 -0.10334008593E+05  0.10334008593E+05  0.00000000000E+00 0. -1.
       23    1    1    2    0    0  0.00000000000E+00  0.00000000000E+00 -0.10333807431E+05  0.10334209756E+05  0.91188000000E+02 0.  1.
<scales pt_clust_3="100000.00000"></scales>
<rwgt>
<wgt id='bias'>   0.1000000E+01</wgt>
</rwgt>
<clustering>
<clus scale="   91.188">  1  3  2 -1</clus>
</clustering>
</event>
<event>
 4   2  0.8512900E+003  0.1791228E+03  0.7546771E-02  0.1071166E+00
        1   -1    0    0  502    0 -0.00000000000E+00  0.00000000000E+00  0.47096624089E+02  0.47096624089E+02  0.00000000000E+00 0. -1.
       21   -1    0    0  501  502  0.00000000000E+00 -0.00000000000E+00 -0.17031461609E+03  0.17031461609E+03  0.00000000000E+00 0.  1.
       23    1    1    2    0    0 -0.21997817410E+02 -0.42993683975E+02 -0.13279844892E+03  0.16817562312E+03  0.91188000000E+02 0.  1.
        1    1    1    2  501    0  0.21997817410E+02  0.42993683975E+02  0.95804569180E+01  0.49235617060E+02  0.00000000000E+00 0. -1.
<scales pt_clust_3="100000.00000" pt_clust_4="100000.00000"></scales>
<rwgt>
<wgt id='bias'>   0.1000000E+01</wgt>
</rwgt>
<clustering>
<clus scale="   48.295">  3  4 -1 -1</clus>
<clus scale="  179.123">  2  3  1 -1</clus>
</clustering>
</event>
<event>
 3   1  0.8512900E+003  0.9118800E+02  0.7546771E-02  0.1180022E+00
        2   -1    0    0  501    0  0.00000000000E+00  0.00000000000E+00  0.22794025968E+04  0.22794025968E+04  0.00000000000E+00 0. -1.
       -2   -1    0    0    0  501 -0.00000000000E+00 -0.00000000000E+00 -0.91199897679E+00  0.91199897679E+00  0.00000000000E+00 0.  1.
       23    1    1    2    0    0  0.00000000000E+00  0.00000000000E+00  0.22784905979E+04  0.22803145958E+04  0.91188000000E+02 0. -1.
<scales pt_clust_3="100000.00000"></scales>
<rwgt>
<wgt id='bias'>   0.1000000E+01</wgt>
</rwgt>
<clustering>
<clus scale="   91.188">  1  3  2 -1</clus>
</clustering>
</event>
<event>
 4   2  0.8512900E+003  0.9334156E+02  0.7546771E-02  0.1175881E+00
        2   -1    0    0  502    0  0.00000000000E+00  0.00000000000E+00  0.10284078396E+05  0.10284078396E+05  0.00000000000E+00 0. -1.
       -2   -1    0    0    0  501 -0.00000000000E+00 -0.00000000000E+00 -0.33761227091E+00  0.33761227091E+00  0.00000000000E+00 0.  1.
       23    1    1    2    0    0  0.19689114199E+02 -0.31198960394E+01  0.71108858096E+04  0.71114984105E+04  0.91188000000E+02 0.  0.
       21    1    1    2  502  501 -0.19689114199E+02  0.31198960394E+01  0.31728549740E+04  0.31729175976E+04  0.00000000000E+00 0.  1.
<scales pt_clust_3="100000.00000" pt_clust_4="19.93477"></scales>
<rwgt>
<wgt id='bias'>   0.1000000E+01</wgt>
</rwgt>
<clustering>
<clus scale="   19.935">  1  4  2 -1</clus>
<clus scale="   19.935">  1  3  2 -1</clus>
</clustering>
</event>
<event>
 5   3  0.8512900E+003  0.5118912E+02  0.7546771E-02  0.1156153E+00
        1   -1    0    0  503    0  0.00000000000E+00  0.00000000000E+00  0.18480133277E+03  0.18480133277E+03  0.00000000000E+00 0. -1.
       -1   -1    0    0    0  501 -0.00000000000E+00 -0.00000000000E+00 -0.75324374868E+02  0.75324374868E+02  0.00000000000E+00 0.  1.
       23    1    1    2    0    0  0.23536796887E+02  0.18839510195E+02  0.71285931438E+02  0.11960703707E+03  0.91188000000E+02 0. -1.
       21    1    1    2  502  501  0.29174806643E+02  0.12022496933E+02 -0.33710390294E+02  0.46174670426E+02  0.00000000000E+00 0.  1.
       21    1    1    2  503  502 -0.52711603530E+02 -0.30862007129E+02  0.71901416759E+02  0.94344000142E+02  0.00000000000E+00 0. -1.
<scales pt_clust_3="100000.00000" pt_clust_4="31.55487" pt_clust_5="51.18912"></scales>
<rwgt>
<wgt id='bias'>   0.1000000E+01</wgt>
</rwgt>
<clustering>
<clus scale="   31.555">  2  4  1 -1</clus>
<clus scale="   51.189">  1  5  2 -1</clus>
<clus scale="   51.189">  1  3  2 -1</clus>
</clustering>
</event>
<event>
 4   2  0.8512900E+003  0.2334062E+03  0.7546771E-02  0.1033864E+00
        1   -1    0    0  502    0 -0.00000000000E+00  0.00000000000E+00  0.31776719822E+01  0.31776719822E+01  0.00000000000E+00 0. -1.
       21   -1    0    0  501  502  0.00000000000E+00 -0.00000000000E+00 -0.42860358737E+04  0.42860358737E+04  0.00000000000E+00 0. -1.
       23    1    1    2    0    0 -0.46731797369E+02  0.81399562485E+02 -0.18960837506E+04  0.19005942729E+04  0.91188000000E+02 0. -1.
        1    1    1    2  501    0  0.46731797369E+02 -0.81399562485E+02 -0.23867744511E+04  0.23886192727E+04  0.00000000000E+00 0. -1.
<scales pt_clust_3="100000.00000" pt_clust_4="100000.00000"></scales>
<rwgt>
<wgt id='bias'>   0.1000000E+01</wgt>
</rwgt>
<clustering>
<clus scale="   93.860">  3  4 -1 -1</clus>
<clus scale="  233.406">  2  3  1 -1</clus>
</clustering>
</event>
<event>
 4   2  0.8512900E+003  0.9266708E+02  0.7546771E-02  0.1177165E+00
        5   -1    0    0  502    0 -0.00000000000E+00  0.00000000000E+00  0.78291574564E+02  0.78291574564E+02  0.00000000000E+00 0.  1.
       21   -1    0    0  501  502  0.00000000000E+00 -0.00000000000E+00 -0.42486846146E+02  0.42486846146E+02  0.00000000000E+00 0. -1.
       23    1    1    2    0    0  0.65987804628E+01 -0.15112632909E+02  0.14433139464E+02  0.93784340035E+02  0.91188000000E+02 0. -1.
        5    1    1    2  501    0 -0.65987804628E+01  0.15112632909E+02  0.21371588954E+02  0.26994080674E+02  0.00000000000E+00 0.  1.
<scales pt_clust_3="100000.00000" pt_clust_4="16.49048"></scales>
<rwgt>
<wgt id='bias'>   0.1000000E+01</wgt>
</rwgt>
<clustering>
<clus scale="   16.490">  2  4  1 -1</clus>
<clus scale="   16.490">  2  3  1 -1</clus>
</clustering>
</event>
<event>
 4   2  0.8512900E+003  0.1202751E+03  0.7546771E-02  0.1132766E+00
       21   -1    0    0  501  502  0.00000000000E+00  0.00000000000E+00  0.10324270211E+02  0.10324270211E+02  0.00000000000E+00 0.  1.
       -2   -1    0    0    0  501 -0.00000000000E+00 -0.00000000000E+00 -0.35029330783E+03  0.35029330783E+03  0.00000000000E+00 0.  1.
       23    1    1    2    0    0 -0.22940463578E+02  0.10667630725E+02 -0.27881358545E+03  0.29443561264E+03  0.91188000000E+02 0.  1.
       -2    1    1    2    0  502  0.22940463578E+02 -0.10667630725E+02 -0.61155452164E+02  0.66181965397E+02  0.00000000000E+00 0.  1.
<scales pt_clust_3="100000.00000" pt_clust_4="100000.00000"></scales>
<rwgt>
<wgt id='bias'>   0.1000000E+01</wgt>
</rwgt>
<clustering>
<clus scale="   25.299">  3  4 -1 -1</clus>
<clus scale="  120.275">  1  3  2 -1</clus>
</clustering>
</event>
<event>
 5   3  0.8512900E+003  0.1741682E+02  0.7546771E-02  0.1176841E+00
        1   -1    0    0  503    0 -0.00000000000E+00  0.00000000000E+00  0.13628349744E+02  0.13628349744E+02  0.00000000000E+00 0. -1.
       21   -1    0    0  501  502  0.00000000000E+00 -0.00000000000E+00 -0.12492073144E+04  0.12492073144E+04  0.00000000000E+00 0. -1.
       23    1    1    2    0    0  0.24946684192E+02 -0.11510341420E+02 -0.49966196465E+03  0.50865720802E+03  0.91188000000E+02 0. -1.
       21    1    1    2  503  502 -0.77341982014E+01  0.12890973147E+02  0.27729257731E+01  0.15286730450E+02  0.00000000000E+00 0. -1.
        1    1    1    2  501    0 -0.17212485991E+02 -0.13806317272E+01 -0.73868992574E+03  0.73889172563E+03  0.00000000000E+00 0. -1.
<scales pt_clust_3="100000.00000" pt_clust_4="15.03313" pt_clust_5="17.41682"></scales>
<rwgt>
<wgt id='bias'>   0.1000000E+01</wgt>
</rwgt>
<clustering>
<clus scale="   15.033">  1  4  2 -1</clus>
<clus scale="   17.417">  2  5  1 -1</clus>
<clus scale="   17.417">  2  3  1 -1</clus>
</clustering>
</event>
<event>
 3   1  0.8512900E+003  0.9118800E+02  0.7546771E-02  0.1180022E+00
       -4   -1    0    0    0  501 -0.00000000000E+00  0.00000000000E+00  0.16729929643E+03  0.16729929643E+03  0.00000000000E+00 0.  1.
        4   -1    0    0  501    0  0.00000000000E+00 -0.00000000000E+00 -0.12425711766E+02  0.12425711766E+02  0.00000000000E+00 0. -1.
       23    1    1    2    0    0  0.00000000000E+00 -0.00000000000E+00  0.15487358466E+03  0.17972500819E+03  0.91188000000E+02 0.  1.
<scales pt_clust_3="100000.00000"></scales>
<rwgt>
<wgt id='bias'>   0.1000000E+01</wgt>
</rwgt>
<clustering>
<clus scale="   91.188">  2  3  1 -1</clus>
</clustering>
</event>
<event>
 4   2  0.8512900E+003  0.9523153E+02  0.7546771E-02  0.1172350E+00
       -2   -1    0    0    0  501 -0.00000000000E+00  0.00000000000E+00  0.97610133848E+01  0.97610133848E+01  0.00000000000E+00 0.  1.
       21   -1    0    0  501  502  0.00000000000E+00 -0.00000000000E+00 -0.39085535637E+03  0.39085535637E+03  0.00000000000E+00 0. -1.
       23    1    1    2    0    0  0.25737705708E+02 -0.95584614972E+01 -0.27479757311E+03  0.29083113866E+03  0.91188000000E+02 0. -1.
       -2    1    1    2    0  502 -0.25737705708E+02  0.95584614972E+01 -0.10629676987E+03  0.10978523109E+03  0.00000000000E+00 0.  1.
<scales pt_clust_3="100000.00000" pt_clust_4="27.45530"></scales>
<rwgt>
<wgt id='bias'>   0.1000000E+01</wgt>
</rwgt>
<clustering>
<clus scale="   27.455">  2  4  1 -1</clus>
<clus scale="   27.455">  2  3  1 -1</clus>
</clustering>
</event>
<event>
 3   1  0.8512900E+003  0.9118800E+02  0.7546771E-02  0.1180022E+00
        3   -1    0    0  501    0  0.00000000000E+00  0.00000000000E+00  0.98306056353E+03  0.98306056353E+03  0.00000000000E+00 0. -1.
       -3   -1    0    0    0  501 -0.00000000000E+00 -0.00000000000E+00 -0.21146335365E+01  0.21146335365E+01  0.00000000000E+00 0.  1.
       23    1    1    2    0    0  0.00000000000E+00  0.00000000000E+00  0.98094592999E+03  0.98517519706E+03  0.91188000000E+02 0. -1.
<scales pt_clust_3="100000.00000"></scales>
<rwgt>
<wgt id='bias'>   0.1000000E+01</wgt>
</rwgt>
<clustering>
<clus scale="   91.188">  1  3  2 -1</clus>
</clustering>
</event>
<event>
 5   3  0.8512900E+003  0.1126350E+03  0.7546771E-02  0.1143620E+00
       21   -1    0    0  503  502  0.00000000000E+00  0.00000000000E+00  0.12531421370E+04  0.12531421370E+04  0.00000000000E+00 0. -1.
       -3   -1    0    0    0  501 -0.00000000000E+00 -0.00000000000E+00 -0.54421733416E+02  0.54421733416E+02  0.00000000000E+00 0.  1.
       23    1    1    2    0    0 -0.36611268215E+01  0.61517344516E+01 -0.15154087882E+02  0.92715400069E+02  0.91188000000E+02 0.  1.
       21    1    1    2  503  501  0.95393965064E+01 -0.48862568285E+01  0.11948130872E+04  0.11948611589E+04  0.00000000000E+00 0. -1.
       -3    1    1    2    0  502 -0.58782696849E+01 -0.12654776231E+01  0.19061404251E+02  0.19987311478E+02  0.00000000000E+00 0.  1.
<scales pt_clust_3="100000.00000" pt_clust_4="10.71800" pt_clust_5="100000.00000"></scales>
<rwgt>
<wgt id='bias'>   0.1000000E+01</wgt>
</rwgt>
<clustering>
<clus scale="    6.013">  3  5 -1 -1</clus>
<clus scale="   10.718">  1  4  2 -1</clus>
<clus scale="   10.718">  1  3  2 -1</clus>
</clustering>
</event>
<event>
 3   1  0.8512900E+003  0.9118800E+02  0.7546771E-02  0.1180022E+00
        1   -1    0    0  501    0  0.00000000000E+00  0.00000000000E+00  0.42797713019E+03  0.42797713019E+03  0.00000000000E+00 0. -1.
       -1   -1    0    0    0  501 -0.00000000000E+00 -0.00000000000E+00 -0.48572988820E+01  0.48572988820E+01  0.00000000000E+00 0.  1.
       23    1    1    2    0    0  0.00000000000E+00  0.00000000000E+00  0.42311983131E+03  0.43283442908E+03  0.91188000000E+02 0. -1.
<scales pt_clust_3="100000.00000"></scales>
<rwgt>
<wgt id='bias'>   0.1000000E+01</wgt>
</rwgt>
<clustering>
<clus scale="   91.188">  1  3  2 -1</clus>
</clustering>
</event>
<event>
 5   3  0.8512900E+003  0.1071922E+03  0.7546771E-02  0.1151948E+00
       -3   -1    0    0    0  501 -0.00000000000E+00  0.00000000000E+00  0.43145286827E+03  0.43145286827E+03  0.00000000000E+00 0.  1.
        1   -1    0    0  501    0  0.00000000000E+00 -0.00000000000E+00 -0.53482556176E+02  0.53482556176E+02  0.00000000000E+00 0. -1.
       23    1    1    2    0    0  0.26588028396E+01  0.36954040126E+01 -0.38914853274E+01  0.91384463917E+02  0.91188000000E+02 0. -1.
        1    1    1    2  502    0 -0.15141665613E+02  0.12834984957E+01  0.43587012026E+01  0.15808721710E+02  0.00000000000E+00 0. -1.
       -3    1    1    2    0  502  0.12482862774E+02 -0.49789025084E+01  0.37750309622E+03  0.37774223882E+03  0.00000000000E+00 0.  1.
<scales pt_clust_3="100000.00000" pt_clust_4="100000.00000" pt_clust_5="13.43917"></scales>
<rwgt>
<wgt id='bias'>   0.1000000E+01</wgt>
</rwgt>
<clustering>
<clus scale="   13.439">  1  5  2 -1</clus>
<clus scale="   12.808">  3  4 -1 -1</clus>
<clus scale="  107.192">  2  3  1 -1</clus>
</clustering>
</event>
<event>
 5   3  0.8512900E+003  0.9273876E+02  0.7546771E-02  0.1177028E+00
        3   -1    0    0  501    0 -0.00000000000E+00  0.00000000000E+00  0.74282979684E+00  0.74282979684E+00  0.00000000000E+00 0. -1.
        2   -1    0    0  502    0  0.00000000000E+00 -0.00000000000E+00 -0.10876345344E+05  0.10876345344E+05  0.00000000000E+00 0. -1.
       23    1    1    2    0    0  0.13369462122E+00  0.17195739600E+02 -0.31799021719E+04  0.31812558503E+04  0.91188000000E+02 0. -1.
        2    1    1    2  501    0 -0.18013940027E+02 -0.42514077620E+01 -0.19051060379E+04  0.19051959458E+04  0.00000000000E+00 0. -1.
        3    1    1    2  502    0  0.17880245406E+02 -0.12944331838E+02 -0.57905943046E+04  0.57906363778E+04  0.00000000000E+00 0. -1.
<scales pt_clust_3="100000.00000" pt_clust_4="18.50882" pt_clust_5="16.88864"></scales>
<rwgt>
<wgt id='bias'>   0.1000000E+01</wgt>
</rwgt>
<clustering>
<clus scale="   18.509">  2  4  1 -1</clus>
<clus scale="   16.889">  2  5  1 -1</clus>
<clus scale="   18.509">  2  3  1 -1</clus>
</clustering>
</event>
<event>
 3   1  0.8512900E+003  0.9118800E+02  0.7546771E-02  0.1180022E+00
        2   -1    0    0  501    0  0.00000000000E+00  0.00000000000E+00  0.17417271208E+02  0.17417271208E+02  0.00000000000E+00 0. -1.
       -2   -1    0    0    0  501 -0.00000000000E+00 -0.00000000000E+00 -0.11935353197E+03  0.11935353197E+03  0.00000000000E+00 0.  1.
       23    1    1    2    0    0  0.00000000000E+00  0.00000000000E+00 -0.10193626076E+03  0.13677080318E+03  0.91188000000E+02 0. -1.
<scales pt_clust_3="100000.00000"></scales>
<rwgt>
<wgt id='bias'>   0.1000000E+01</wgt>
</rwgt>
<clustering>
<clus scale="   91.188">  1  3  2 -1</clus>
</clustering>
</event>
<event>
 4   2  0.8512900E+003  0.9790819E+02  0.7546771E-02  0.1167503E+00
       21   -1    0    0  501  502  0.00000000000E+00  0.00000000000E+00  0.57293411016E+00  0.57293411016E+00  0.00000000000E+00 0. -1.
        2   -1    0    0  502    0 -0.00000000000E+00 -0.00000000000E+00 -0.12407975561E+05  0.12407975561E+05  0.00000000000E+00 0. -1.
       23    1    1    2    0    0 -0.10308256290E+02  0.34124814374E+02 -0.11537933538E+05  0.11538348944E+05  0.91188000000E+02 0. -1.
        2    1    1    2  501    0  0.10308256290E+02 -0.34124814374E+02 -0.86946908889E+03  0.87019955162E+03  0.00000000000E+00 0. -1.
<scales pt_clust_3="100000.00000" pt_clust_4="35.64776"></scales>
<rwgt>
<wgt id='bias'>   0.1000000E+01</wgt>
</rwgt>
<clustering>
<clus scale="   35.648">  1  4  2 -1</clus>
<clus scale="   35.648">  1  3  2 -1</clus>
</clustering>
</event>
<event>
 5   3  0.8512900E+003  0.9319936E+02  0.7546771E-02  0.1176151E+00
        4   -1    0    0  503    0 -0.00000000000E+00  0.00000000000E+00  0.56505479681E+01  0.56505479681E+01  0.00000000000E+00 0. -1.
       21   -1    0    0  501  502  0.00000000000E+00 -0.00000000000E+00 -0.18820062555E+04  0.18820062555E+04  0.00000000000E+00 0.  1.
       23    1    1    2    0    0  0.13036594086E+02 -0.15320135158E+02 -0.39814024587E+03  0.40894445351E+03  0.91188000000E+02 0. -1.
       21    1    1    2  503  502  0.66462586238E+01  0.11510122949E+02 -0.26666586736E+03  0.26699689230E+03  0.00000000000E+00 0.  1.
        4    1    1    2  501    0 -0.19682852710E+02  0.38100122092E+01 -0.12115495943E+04  0.12117154576E+04  0.00000000000E+00 0. -1.
<scales pt_clust_3="100000.00000" pt_clust_4="13.29119" pt_clust_5="19.25795"></scales>
<rwgt>
<wgt id='bias'>   0.1000000E+01</wgt>
</rwgt>
<clustering>
<clus scale="   13.291">  2  4  1 -1</clus>
<clus scale="   19.258">  2  5  1 -1</clus>
<clus scale="   13.291">  2  3  1 -1</clus>
</clustering>
</event>
<event>
 4   2  0.8512900E+003  0.9224810E+02  0.7546771E-02  0.1177968E+00
       21   -1    0    0  501  502  0.00000000000E+00  0.00000000000E+00  0.90214896939E+03  0.90214896939E+03  0.00000000000E+00 0. -1.
       -1   -1    0    0    0  501 -0.00000000000E+00 -0.00000000000E+00 -0.19047128630E+02  0.19047128630E+02  0.00000000000E+00 0. -1.
       23    1    1    2    0    0 -0.44514573228E+00 -0.13937795013E+02  0.93069230116E+02  0.13104042591E+03  0.91188000000E+02 0. -1.
       -1    1    1    2    0  502  0.44514573228E+00  0.13937795013E+02  0.79003261064E+03  0.79015567211E+03  0.00000000000E+00 0. -1.
<scales pt_clust_3="100000.00000" pt_clust_4="13.94490"></scales>
<rwgt>
<wgt id='bias'>   0.1000000E+01</wgt>
</rwgt>
<clustering>
<clus scale="   13.945">  1  4  2 -1</clus>
<clus scale="   13.945">  1  3  2 -1</clus>
</clustering>
</event>
<event>
 3   1  0.8512900E+003  0.9118800E+02  0.7546771E-02  0.1180022E+00
        3   -1    0    0  501    0  0.00000000000E+00  0.00000000000E+00  0.31581284238E+02  0.31581284238E+02  0.00000000000E+00 0. -1.
       -3   -1    0    0    0  501 -0.00000000000E+00 -0.00000000000E+00 -0.65824202092E+02  0.65824202092E+02  0.00000000000E+00 0.  1.
       23    1    1    2    0    0  0.00000000000E+00  0.00000000000E+00 -0.34242917855E+02  0.97405486330E+02  0.91188000000E+02 0. -1.
<scales pt_clust_3="100000.00000"></scales>
<rwgt>
<wgt id='bias'>   0.1000000E+01</wgt>
</rwgt>
<clustering>
<clus scale="   91.188">  1  3  2 -1</clus>
</clustering>
</event>
<event>
 3   1  0.8512900E+003  0.9118800E+02  0.7546771E-02  0.1180022E+00
        3   -1    0    0  501    0  0.00000000000E+00  0.00000000000E+00  0.39336882391E+02  0.39336882391E+02  0.00000000000E+00 0. -1.
       -3   -1    0    0    0  501 -0.00000000000E+00 -0.00000000000E+00 -0.52846405451E+02  0.52846405451E+02  0.00000000000E+00 0.  1.
       23    1    1    2    0    0  0.00000000000E+00  0.00000000000E+00 -0.13509523060E+02  0.92183287842E+02  0.91188000000E+02 0. -1.
<scales pt_clust_3="100000.00000"></scales>
<rwgt>
<wgt id='bias'>   0.1000000E+01</wgt>
</rwgt>
<clustering>
<clus scale="   91.188">  1  3  2 -1</clus>
</clustering>
</event>
<event>
 4   2  0.8512900E+003  0.2056915E+03  0.7546771E-02  0.1051347E+00
       -1   -1    0    0    0  501 -0.00000000000E+00  0.00000000000E+00  0.61691055625E+03  0.61691055625E+03  0.00000000000E+00 0.  1.
       21   -1    0    0  501  502  0.00000000000E+00 -0.00000000000E+00 -0.17145517295E+02  0.17145517295E+02  0.00000000000E+00 0.  1.
       23    1    1    2    0    0 -0.53726917711E+02  0.59823284711E+02  0.30010748582E+03  0.32379802573E+03  0.91188000000E+02 0.  1.
       -1    1    1    2    0  502  0.53726917711E+02 -0.59823284711E+02  0.29965755314E+03  0.31025804782E+03  0.00000000000E+00 0.  1.
<scales pt_clust_3="100000.00000" pt_clust_4="100000.00000"></scales>
<rwgt>
<wgt id='bias'>   0.1000000E+01</wgt>
</rwgt>
<clustering>
<clus scale="   80.408">  3  4 -1 -1</clus>
<clus scale="  205.692">  2  3  1 -1</clus>
</clustering>
</event>
<event>
 5   3  0.8512900E+003  0.9423939E+02  0.7546771E-02  0.1174192E+00
       21   -1    0    0  501  502  0.00000000000E+00  0.00000000000E+00  0.12439356907E+03  0.12439356907E+03  0.00000000000E+00 0. -1.
        2   -1    0    0  503    0 -0.00000000000E+00 -0.00000000000E+00 -0.98272453544E+02  0.98272453544E+02  0.00000000000E+00 0. -1.
       23    1    1    2    0    0 -0.83364456913E+01  0.20808433229E+02 -0.69272427721E+02  0.11668936458E+03  0.91188000000E+02 0. -1.
       21    1    1    2  503  502 -0.13190900992E+02  0.66027914436E+00  0.14784009044E+02  0.19824297237E+02  0.00000000000E+00 0.  1.
        2    1    1    2  501    0  0.21527346683E+02 -0.21468712373E+02  0.80609534205E+02  0.86152360797E+02  0.00000000000E+00 0. -1.
<scales pt_clust_3="100000.00000" pt_clust_4="13.20742" pt_clust_5="23.78678"></scales>
<rwgt>
<wgt id='bias'>   0.1000000E+01</wgt>
</rwgt>
<clustering>
<clus scale="   13.207">  1  4  2 -1</clus>
<clus scale="   23.787">  1  5  2 -1</clus>
<clus scale="   13.207">  1  3  2 -1</clus>
</clustering>
</event>
<event>
 5   3  0.8512900E+003  0.2960970E+02  0.7546771E-02  0.1171169E+00
       21   -1    0    0  503  502  0.00000000000E+00  0.00000000000E+00  0.75800587422E+03  0.75800587422E+03  0.00000000000E+00 0. -1.
       21   -1    0    0  501  503 -0.00000000000E+00 -0.00000000000E+00 -0.14652464828E+02  0.14652464828E+02  0.00000000000E+00 0. -1.
       23    1    1    2    0    0  0.39463859785E+02 -0.95421586884E+01  0.22350275434E+03  0.24477986348E+03  0.91188000000E+02 0.  0.
        1    1    1    2  501    0 -0.27345184931E+02  0.21604062858E+01  0.44224422627E+02  0.52040619240E+02  0.00000000000E+00 0. -1.
       -1    1    1    2    0  502 -0.12118674854E+02  0.73817524026E+01  0.47562623243E+03  0.47583785634E+03  0.00000000000E+00 0.  1.
<scales pt_clust_3="100000.00000" pt_clust_4="29.60970" pt_clust_5="14.18987"></scales>
<rwgt>
<wgt id='bias'>   0.1000000E+01</wgt>
</rwgt>
<clustering>
<clus scale="   14.190">  1  5  2 -1</clus>
<clus scale="   29.610">  2  4  1 -1</clus>
<clus scale="   14.190">  1  3  2 -1</clus>
</clustering>
</event>
<event>
 5   3  0.8512900E+003  0.2220671E+02  0.7546771E-02  0.1174916E+00
        2   -1    0    0  503    0  0.00000000000E+00  0.00000000000E+00  0.20167509056E+05  0.20167509056E+05  0.00000000000E+00 0. -1.
       -2   -1    0    0    0  501 -0.00000000000E+00 -0.00000000000E+00 -0.38881339639E+00  0.38881339639E+00  0.00000000000E+00 0.  1.
       23    1    1    2    0    0  0.12519925601E+02  0.75624904310E+01  0.65737355127E+04  0.65743842132E+04  0.91188000000E+02 0.  1.
       21    1    1    2  502  501 -0.23117437418E+01  0.12491523690E+02  0.73866939398E+03  0.73877862444E+03  0.00000000000E+00 0.  1.
       21    1    1    2  503  502 -0.10208181860E+02 -0.20054014121E+02  0.12854715336E+05  0.12854735032E+05  0.00000000000E+00 0. -1.
<scales pt_clust_3="100000.00000" pt_clust_4="12.70363" pt_clust_5="22.20671"></scales>
<rwgt>
<wgt id='bias'>   0.1000000E+01</wgt>
</rwgt>
<clustering>
<clus scale="   12.704">  2  4  1 -1</clus>
<clus scale="   22.207">  1  5  2 -1</clus>
<clus scale="   22.207">  1  3  2 -1</clus>
</clustering>
</event>
<event>
 4   2  0.8512900E+003  0.1136914E+03  0.7546771E-02  0.1142064E+00
        3   -1    0    0  502    0 -0.00000000000E+00  0.00000000000E+00  0.10049500006E+04  0.10049500006E+04  0.00000000000E+00 0. -1.
       21   -1    0    0  501  502  0.00000000000E+00 -0.00000000000E+00 -0.84105343338E+01  0.84105343338E+01  0.00000000000E+00 0. -1.
       23    1    1    2    0    0  0.54919111702E+02  0.39929710609E+02  0.69784575696E+03  0.70704628029E+03  0.91188000000E+02 0. -1.
        3    1    1    2  501    0 -0.54919111702E+02 -0.39929710609E+02  0.29869370930E+03  0.30631425464E+03  0.00000000000E+00 0. -1.
<scales pt_clust_3="100000.00000" pt_clust_4="67.90059"></scales>
<rwgt>
<wgt id='bias'>   0.1000000E+01</wgt>
</rwgt>
<clustering>
<clus scale="   67.901">  2  4  1 -1</clus>
<clus scale="   67.901">  2  3  1 -1</clus>
</clustering>
</event>
<event>
 3   1  0.8512900E+003  0.9118800E+02  0.7546771E-02  0.1180022E+00
       -2   -1    0    0    0  501 -0.00000000000E+00  0.00000000000E+00  0.76493678374E-01  0.76493678374E-01  0.00000000000E+00 0.  1.
        2   -1    0    0  501    0  0.00000000000E+00 -0.00000000000E+00 -0.27176269729E+05  0.27176269729E+05  0.00000000000E+00 0. -1.
       23    1    1    2    0    0  0.00000000000E+00 -0.00000000000E+00 -0.27176193235E+05  0.27176346222E+05  0.91188000000E+02 0.  1.
<scales pt_clust_3="100000.00000"></scales>
<rwgt>
<wgt id='bias'>   0.1000000E+01</wgt>
</rwgt>
<clustering>
<clus scale="   91.188">  2  3  1 -1</clus>
</clustering>
</event>
<event>
 3   1  0.8512900E+003  0.9118800E+02  0.7546771E-02  0.1180022E+00
        2   -1    0    0  501    0  0.00000000000E+00  0.00000000000E+00  0.19181321310E+05  0.19181321310E+05  0.00000000000E+00 0. -1.
       -2   -1    0    0    0  501 -0.00000000000E+00 -0.00000000000E+00 -0.10837693621E+00  0.10837693621E+00  0.00000000000E+00 0.  1.
       23    1    1    2    0    0  0.00000000000E+00  0.00000000000E+00  0.19181212934E+05  0.19181429687E+05  0.91188000000E+02 0. -1.
<scales pt_clust_3="100000.00000"></scales>
<rwgt>
<wgt id='bias'>   0.1000000E+01</wgt>
</rwgt>
<clustering>
<clus scale="   91.188">  1  3  2 -1</clus>
</clustering>
</event>
<event>
 4   2  0.8512900E+003  0.9927908E+02  0.7546771E-02  0.1165087E+00
       21   -1    0    0  501  502  0.00000000000E+00  0.00000000000E+00  0.12003513244E+04  0.12003513244E+04  0.00000000000E+00 0. -1.
        2   -1    0    0  502    0 -0.00000000000E+00 -0.00000000000E+00 -0.43063601541E+01  0.43063601541E+01  0.00000000000E+00 0. -1.
       23    1    1    2    0    0 -0.39255450702E+02  0.30781021476E+00  0.69186563684E+03  0.69895235599E+03  0.91188000000E+02 0. -1.
        2    1    1    2  501    0  0.39255450702E+02 -0.30781021476E+00  0.50417932742E+03  0.50570532858E+03  0.00000000000E+00 0. -1.
<scales pt_clust_3="100000.00000" pt_clust_4="39.25666"></scales>
<rwgt>
<wgt id='bias'>   0.1000000E+01</wgt>
</rwgt>
<clustering>
<clus scale="   39.257">  1  4  2 -1</clus>
<clus scale="   39.257">  1  3  2 -1</clus>
</clustering>
</event>
<event>
 4   2  0.8512900E+003  0.9181938E+02  0.7546771E-02  0.1178795E+00
       21   -1    0    0  501  502  0.00000000000E+00  0.00000000000E+00  0.55644897506E+03  0.55644897506E+03  0.00000000000E+00 0.  1.
        5   -1    0    0  502    0 -0.00000000000E+00 -0.00000000000E+00 -0.52747912401E+01  0.52747912401E+01  0.00000000000E+00 0. -1.
       23    1    1    2    0    0  0.10455025532E+02  0.24980245888E+01  0.41069465094E+03  0.42083357203E+03  0.91188000000E+02 0. -1.
        5    1    1    2  501    0 -0.10455025532E+02 -0.24980245888E+01  0.14047953288E+03  0.14089019428E+03  0.00000000000E+00 0. -1.
<scales pt_clust_3="100000.00000" pt_clust_4="10.74931"></scales>
<rwgt>
<wgt id='bias'>   0.1000000E+01</wgt>
</rwgt>
<clustering>
<clus scale="   10.749">  1  4  2 -1</clus>
<clus scale="   10.749">  1  3  2 -1</clus>
</clustering>
</event>
<event>
 3   1  0.8512900E+003  0.9118800E+02  0.7546771E-02  0.1180022E+00
       -2   -1    0    0    0  501 -0.00000000000E+00  0.00000000000E+00  0.16163447536E+03  0.16163447536E+03  0.00000000000E+00 0.  1.
        2   -1    0    0  501    0  0.00000000000E+00 -0.00000000000E+00 -0.12861197040E+02  0.12861197040E+02  0.00000000000E+00 0. -1.
       23    1    1    2    0    0  0.00000000000E+00 -0.00000000000E+00  0.14877327832E+03  0.17449567240E+03  0.91188000000E+02 0.  1.
<scales pt_clust_3="100000.00000"></scales>
<rwgt>
<wgt id='bias'>   0.1000000E+01</wgt>
</rwgt>
<clustering>
<clus scale="   91.188">  2  3  1 -1</clus>
</clustering>
</event>
<event>
 4   2  0.8512900E+003  0.9327767E+02  0.7546771E-02  0.1176002E+00
       21   -1    0    0  501  502  0.00000000000E+00  0.00000000000E+00  0.36647770461E+00  0.36647770461E+00  0.00000000000E+00 0. -1.
        2   -1    0    0  502    0 -0.00000000000E+00 -0.00000000000E+00 -0.93931411833E+04  0.93931411833E+04  0.00000000000E+00 0.  1.
       23    1    1    2    0    0 -0.10240596508E+02  0.16751213196E+02 -0.85279883492E+04  0.85284984616E+04  0.91188000000E+02 0. -1.
        2    1    1    2  501    0  0.10240596508E+02 -0.16751213196E+02 -0.86478635633E+03  0.86500919940E+03  0.00000000000E+00 0.  1.
<scales pt_clust_3="100000.00000" pt_clust_4="19.63347"></scales>
<rwgt>
<wgt id='bias'>   0.1000000E+01</wgt>
</rwgt>
<clustering>
<clus scale="   19.633">  1  4  2 -1</clus>
<clus scale="   19.633">  1  3  2 -1</clus>
</clustering>
</event>
<event>
 3   1  0.8512900E+003  0.9118800E+02  0.7546771E-02  0.1180022E+00
       -2   -1    0    0    0  501 -0.00000000000E+00  0.00000000000E+00  0.88561588940E+00  0.88561588940E+00  0.00000000000E+00 0.  1.
        2   -1    0    0  501    0  0.00000000000E+00 -0.00000000000E+00 -0.23473075188E+04  0.23473075188E+04  0.00000000000E+00 0. -1.
       23    1    1    2    0    0  0.00000000000E+00 -0.00000000000E+00 -0.23464219029E+04  0.23481931347E+04  0.91188000000E+02 0.  1.
<scales pt_clust_3="100000.00000"></scales>
<rwgt>
<wgt id='bias'>   0.1000000E+01</wgt>
</rwgt>
<clustering>
<clus scale="   91.188">  2  3  1 -1</clus>
</clustering>
</event>
<event>
 4   2  0.8512900E+003  0.9434684E+02  0.7546771E-02  0.1173991E+00
       -1   -1    0    0    0  501 -0.00000000000E+00  0.00000000000E+00  0.63045960798E+03  0.63045960798E+03  0.00000000000E+00 0.  1.
        1   -1    0    0  502    0  0.00000000000E+00 -0.00000000000E+00 -0.78527616507E+01  0.78527616507E+01  0.00000000000E+00 0. -1.
       23    1    1    2    0    0  0.17771555533E+02 -0.16439205049E+02  0.59108297277E+03  0.59856529109E+03  0.91188000000E+02 0.  1.
       21    1    1    2  502  501 -0.17771555533E+02  0.16439205049E+02  0.31523873557E+02  0.39747078544E+02  0.00000000000E+00 0. -1.
<scales pt_clust_3="100000.00000" pt_clust_4="24.20900"></scales>
<rwgt>
<wgt id='bias'>   0.1000000E+01</wgt>
</rwgt>
<clustering>
<clus scale="   24.209">  2  4  1 -1</clus>
<clus scale="   24.209">  2  3  1 -1</clus>
</clustering>
</event>
<event>
 3   1  0.8512900E+003  0.9118800E+02  0.7546771E-02  0.1180022E+00
        3   -1    0    0  501    0  0.00000000000E+00  0.00000000000E+00  0.24070835659E+02  0.24070835659E+02  0.00000000000E+00 0. -1.
       -3   -1    0    0    0  501 -0.00000000000E+00 -0.00000000000E+00 -0.86362304386E+02  0.86362304386E+02  0.00000000000E+00 0.  1.
       23    1    1    2    0    0  0.00000000000E+00  0.00000000000E+00 -0.62291468727E+02  0.11043314004E+03  0.91188000000E+02 0. -1.
<scales pt_clust_3="100000.00000"></scales>
<rwgt>
<wgt id='bias'>   0.1000000E+01</wgt>
</rwgt>
<clustering>
<clus scale="   91.188">  1  3  2 -1</clus>
</clustering>
</event>
<event>
 4   2  0.8512900E+003  0.9498317E+02  0.7546771E-02  0.1172808E+00
       -3   -1    0    0    0  501 -0.00000000000E+00  0.00000000000E+00  0.21766552303E+02  0.21766552303E+02  0.00000000000E+00 0.  1.
       21   -1    0    0  501  502  0.00000000000E+00 -0.00000000000E+00 -0.17540211165E+03  0.17540211165E+03  0.00000000000E+00 0.  1.
       23    1    1    2    0    0 -0.66808299198E+01  0.25727773405E+02 -0.10388133685E+03  0.14075913932E+03  0.91188000000E+02 0.  1.
       -3    1    1    2    0  502  0.66808299198E+01 -0.25727773405E+02 -0.49754222502E+02  0.56409524635E+02  0.00000000000E+00 0.  1.
<scales pt_clust_3="100000.00000" pt_clust_4="26.58104"></scales>
<rwgt>
<wgt id='bias'>   0.1000000E+01</wgt>
</rwgt>
<clustering>
<clus scale="   26.581">  2  4  1 -1</clus>
<clus scale="   26.581">  2  3  1 -1</clus>
</clustering>
</event>
<event>
 4   2  0.8512900E+003  0.9207233E+02  0.7546771E-02  0.1178306E+00
        3   -1    0    0  502    0  0.00000000000E+00  0.00000000000E+00  0.20970109067E+05  0.20970109067E+05  0.00000000000E+00 0. -1.
       -3   -1    0    0    0  501 -0.00000000000E+00 -0.00000000000E+00 -0.15527806640E+00  0.15527806640E+00  0.00000000000E+00 0.  1.
       23    1    1    2    0    0  0.12337235960E+02  0.31392366344E+01  0.14195166311E+05  0.14195464907E+05  0.91188000000E+02 0.  1.
       21    1    1    2  502  501 -0.12337235960E+02 -0.31392366344E+01  0.67747874780E+04  0.67747994387E+04  0.00000000000E+00 0. -1.
<scales pt_clust_3="100000.00000" pt_clust_4="12.73037"></scales>
<rwgt>
<wgt id='bias'>   0.1000000E+01</wgt>
</rwgt>
<clustering>
<clus scale="   12.730">  1  4  2 -1</clus>
<clus scale="   12.730">  1  3  2 -1</clus>
</clustering>
</event>
<event>
 5   3  0.8512900E+003  0.1749416E+02  0.7546771E-02  0.1176814E+00
       21   -1    0    0  501  502  0.00000000000E+00  0.00000000000E+00  0.23900170103E+03  0.23900170103E+03  0.00000000000E+00 0. -1.
        1   -1    0    0  503    0 -0.00000000000E+00 -0.00000000000E+00 -0.25189219449E+02  0.25189219449E+02  0.00000000000E+00 0. -1.
       23    1    1    2    0    0 -0.66235908254E+01  0.10459763629E+02  0.90122087482E+02  0.12880419483E+03  0.91188000000E+02 0. -1.
       21    1    1    2  503  502  0.19280823283E+02  0.13164562996E+01  0.12853945910E+02  0.23210065254E+02  0.00000000000E+00 0.  1.
        1    1    1    2  501    0 -0.12657232458E+02 -0.11776219929E+02  0.11083644819E+03  0.11217666039E+03  0.00000000000E+00 0. -1.
<scales pt_clust_3="100000.00000" pt_clust_4="17.49416" pt_clust_5="17.28829"></scales>
<rwgt>
<wgt id='bias'>   0.1000000E+01</wgt>
</rwgt>
<clustering>
<clus scale="   17.288">  1  5  2 -1</clus>
<clus scale="   17.494">  2  4  1 -1</clus>
<clus scale="   17.288">  1  3  2 -1</clus>
</clustering>
</event>
<event>
 4   2  0.8512900E+003  0.9300906E+02  0.7546771E-02  0.1176512E+00
       -2   -1    0    0    0  501 -0.00000000000E+00  0.00000000000E+00  0.71108304101E+02  0.71108304101E+02  0.00000000000E+00 0.  1.
        2   -1    0    0  502    0  0.00000000000E+00 -0.00000000000E+00 -0.45802748394E+02  0.45802748394E+02  0.00000000000E+00 0. -1.
       23    1    1    2    0    0  0.12583400206E+02 -0.13307577718E+02  0.30485582744E+02  0.97877758887E+02  0.91188000000E+02 0. -1.
       21    1    1    2  502  501 -0.12583400206E+02  0.13307577718E+02 -0.51800270363E+01  0.19033293608E+02  0.00000000000E+00 0. -1.
<scales pt_clust_3="100000.00000" pt_clust_4="18.31485"></scales>
<rwgt>
<wgt id='bias'>   0.1000000E+01</wgt>
</rwgt>
<clustering>
<clus scale="   18.315">  2  4  1 -1</clus>
<clus scale="   18.315">  2  3  1 -1</clus>
</clustering>
</event>
<event>
 4   2  0.8512900E+003  0.9300879E+02  0.7546771E-02  0.1176513E+00
       -3   -1    0    0    0  501 -0.00000000000E+00  0.00000000000E+00  0.13620556142E+01  0.13620556142E+01  0.00000000000E+00 0.  1.
        3   -1    0    0  502    0  0.00000000000E+00 -0.00000000000E+00 -0.23066640294E+04  0.23066640294E+04  0.00000000000E+00 0. -1.
       23    1    1    2    0    0  0.16748365912E+02 -0.74078794075E+01 -0.18138969899E+04  0.18162799689E+04  0.91188000000E+02 0.  1.
       21    1    1    2  502  501 -0.16748365912E+02  0.74078794075E+01 -0.49140498389E+03  0.49174611603E+03  0.00000000000E+00 0. -1.
<scales pt_clust_3="100000.00000" pt_clust_4="18.31350"></scales>
<rwgt>
<wgt id='bias'>   0.1000000E+01</wgt>
</rwgt>
<clustering>
<clus scale="   18.314">  2  4  1 -1</clus>
<clus scale="   18.314">  2  3  1 -1</clus>
</clustering>
</event>
<event>
 3   1  0.8512900E+003  0.9118800E+02  0.7546771E-02  0.1180022E+00
        2   -1    0    0  501    0  0.00000000000E+00  0.00000000000E+00  0.11189537295E+05  0.11189537295E+05  0.00000000000E+00 0. -1.
       -2   -1    0    0    0  501 -0.00000000000E+00 -0.00000000000E+00 -0.18578184076E+00  0.18578184076E+00  0.00000000000E+00 0.  1.
       23    1    1    2    0    0  0.00000000000E+00  0.00000000000E+00  0.11189351514E+05  0.11189723077E+05  0.91188000000E+02 0. -1.
<scales pt_clust_3="100000.00000"></scales>
<rwgt>
<wgt id='bias'>   0.1000000E+01</wgt>
</rwgt>
<clustering>
<clus scale="   91.188">  1  3  2 -1</clus>
</clustering>
</event>
<event>
 4   2  0.8512900E+003  0.9173614E+02  0.7546771E-02  0.1178956E+00
       21   -1    0    0  501  502  0.00000000000E+00  0.00000000000E+00  0.12991052645E+01  0.12991052645E+01  0.00000000000E+00 0.  1.
       -4   -1    0    0    0  501 -0.00000000000E+00 -0.00000000000E+00 -0.20661936819E+04  0.20661936819E+04  0.00000000000E+00 0. -1.
       23    1    1    2    0    0 -0.54994237795E+01 -0.83680647482E+01 -0.19522046176E+04  0.19543588177E+04  0.91188000000E+02 0.  0.
       -4    1    1    2    0  502  0.54994237795E+01  0.83680647482E+01 -0.11268995909E+03  0.11313396947E+03  0.00000000000E+00 0. -1.
<scales pt_clust_3="100000.00000" pt_clust_4="10.01340"></scales>
<rwgt>
<wgt id='bias'>   0.1000000E+01</wgt>
</rwgt>
<clustering>
<clus scale="   10.013">  1  4  2 -1</clus>
<clus scale="   10.013">  1  3  2 -1</clus>
</clustering>
</event>
<event>
 5   3  0.8512900E+003  0.1370821E+04  0.7546771E-02  0.8774445E-01
        2   -1    0    0  502    0  0.00000000000E+00  0.00000000000E+00  0.12051976979E+05  0.12051976979E+05  0.00000000000E+00 0. -1.
       -2   -1    0    0    0  501 -0.00000000000E+00 -0.00000000000E+00 -0.55752881808E+02  0.55752881808E+02  0.00000000000E+00 0.  1.
       23    1    1    2    0    0 -0.44763945677E+02  0.24534259278E+03  0.16884370415E+04  0.17091903619E+04  0.91188000000E+02 0.  1.
        1    1    1    2  502    0 -0.31591113536E+03 -0.21776440862E+02  0.92957144457E+04  0.93011064458E+04  0.00000000000E+00 0. -1.
       -1    1    1    2    0  501  0.36067508103E+03 -0.22356615192E+03  0.10120726099E+04  0.10974330532E+04  0.00000000000E+00 0.  1.
<scales pt_clust_3="100000.00000" pt_clust_4="1347.94396" pt_clust_5="1347.94396"></scales>
<rwgt>
<wgt id='bias'>   0.1000000E+01</wgt>
</rwgt>
<clustering>
<clus scale="  265.541">  2  3  1 -1</clus>
<clus scale=" 1347.944">  4  5 -1 -1</clus>
<clus scale=" 1370.821">  1  3  2 -1</clus>
</clustering>
</event>
<event>
 4   2  0.8512900E+003  0.1562183E+03  0.7546771E-02  0.1091546E+00
       21   -1    0    0  501  502  0.00000000000E+00  0.00000000000E+00  0.27966666846E+02  0.27966666846E+02  0.00000000000E+00 0. -1.
       -2   -1    0    0    0  501 -0.00000000000E+00 -0.00000000000E+00 -0.21815385232E+03  0.21815385232E+03  0.00000000000E+00 0.  1.
       23    1    1    2    0    0  0.24450346146E+02 -0.17548066500E+02 -0.61663288727E+02  0.11411996576E+03  0.91188000000E+02 0. -1.
       -2    1    1    2    0  502 -0.24450346146E+02  0.17548066500E+02 -0.12852389675E+03  0.13200055341E+03  0.00000000000E+00 0.  1.
<scales pt_clust_3="100000.00000" pt_clust_4="100000.00000"></scales>
<rwgt>
<wgt id='bias'>   0.1000000E+01</wgt>
</rwgt>
<clustering>
<clus scale="   30.096">  3  4 -1 -1</clus>
<clus scale="  156.218">  1  3  2 -1</clus>
</clustering>
</event>
<event>
 4   2  0.8512900E+003  0.9523352E+02  0.7546771E-02  0.1172346E+00
       -2   -1    0    0    0  501 -0.00000000000E+00  0.00000000000E+00  0.91469731088E+02  0.91469731088E+02  0.00000000000E+00 0.  1.
       21   -1    0    0  501  502  0.00000000000E+00 -0.00000000000E+00 -0.44710931892E+02  0.44710931892E+02  0.00000000000E+00 0.  1.
       23    1    1    2    0    0 -0.24320738778E+02  0.12754375576E+02  0.51570321357E+02  0.10830014691E+03  0.91188000000E+02 0.  1.
       -2    1    1    2    0  502  0.24320738778E+02 -0.12754375576E+02 -0.48115221611E+01  0.27880516074E+02  0.00000000000E+00 0.  1.
<scales pt_clust_3="100000.00000" pt_clust_4="27.46220"></scales>
<rwgt>
<wgt id='bias'>   0.1000000E+01</wgt>
</rwgt>
<clustering>
<clus scale="   27.462">  2  4  1 -1</clus>
<clus scale="   27.462">  2  3  1 -1</clus>
</clustering>
</event>
<event>
 3   1  0.8512900E+003  0.9118800E+02  0.7546771E-02  0.1180022E+00
       -1   -1    0    0    0  501 -0.00000000000E+00  0.00000000000E+00  0.82491028293E+00  0.82491028293E+00  0.00000000000E+00 0.  1.
        1   -1    0    0  501    0  0.00000000000E+00 -0.00000000000E+00 -0.25200471846E+04  0.25200471846E+04  0.00000000000E+00 0. -1.
       23    1    1    2    0    0  0.00000000000E+00 -0.00000000000E+00 -0.25192222743E+04  0.25208720948E+04  0.91188000000E+02 0.  1.
<scales pt_clust_3="100000.00000"></scales>
<rwgt>
<wgt id='bias'>   0.1000000E+01</wgt>
</rwgt>
<clustering>
<clus scale="   91.188">  2  3  1 -1</clus>
</clustering>
</event>
<event>
 4   2  0.8512900E+003  0.1502250E+03  0.7546771E-02  0.1097519E+00
       -3   -1    0    0    0  501 -0.00000000000E+00  0.00000000000E+00  0.34335334617E+03  0.34335334617E+03  0.00000000000E+00 0.  1.
       21   -1    0    0  501  502  0.00000000000E+00 -0.00000000000E+00 -0.52849805450E+03  0.52849805450E+03  0.00000000000E+00 0.  1.
       23    1    1    2    0    0 -0.10621921534E+03  0.54495676769E+02  0.31961865040E+03  0.35316233310E+03  0.91188000000E+02 0.  1.
       -3    1    1    2    0  502  0.10621921534E+03 -0.54495676769E+02 -0.50476335874E+03  0.51868906757E+03  0.00000000000E+00 0.  1.
<scales pt_clust_3="100000.00000" pt_clust_4="119.38300"></scales>
<rwgt>
<wgt id='bias'>   0.1000000E+01</wgt>
</rwgt>
<clustering>
<clus scale="  119.383">  2  4  1 -1</clus>
<clus scale="  119.383">  2  3  1 -1</clus>
</clustering>
</event>
<event>
 3   1  0.8512900E+003  0.9118800E+02  0.7546771E-02  0.1180022E+00
       -2   -1    0    0    0  501 -0.00000000000E+00  0.00000000000E+00  0.38930655057E+04  0.38930655057E+04  0.00000000000E+00 0.  1.
        2   -1    0    0  501    0  0.00000000000E+00 -0.00000000000E+00 -0.53397838618E+00  0.53397838618E+00  0.00000000000E+00 0. -1.
       23    1    1    2    0    0  0.00000000000E+00 -0.00000000000E+00  0.38925315273E+04  0.38935994840E+04  0.91188000000E+02 0.  1.
<scales pt_clust_3="100000.00000"></scales>
<rwgt>
<wgt id='bias'>   0.1000000E+01</wgt>
</rwgt>
<clustering>
<clus scale="   91.188">  2  3  1 -1</clus>
</clustering>
</event>
<event>
 3   1  0.8512900E+003  0.9118800E+02  0.7546771E-02  0.1180022E+00
       -1   -1    0    0    0  501 -0.00000000000E+00  0.00000000000E+00  0.68473783910E+03  0.68473783910E+03  0.00000000000E+00 0.  1.
        1   -1    0    0  501    0  0.00000000000E+00 -0.00000000000E+00 -0.30359251633E+01  0.30359251633E+01  0.00000000000E+00 0. -1.
       23    1    1    2    0    0  0.00000000000E+00 -0.00000000000E+00  0.68170191394E+03  0.68777376426E+03  0.91188000000E+02 0.  1.
<scales pt_clust_3="100000.00000"></scales>
<rwgt>
<wgt id='bias'>   0.1000000E+01</wgt>
</rwgt>
<clustering>
<clus scale="   91.188">  2  3  1 -1</clus>
</clustering>
</event>
<event>
 3   1  0.8512900E+003  0.9118800E+02  0.7546771E-02  0.1180022E+00
       -1   -1    0    0    0  501 -0.00000000000E+00  0.00000000000E+00  0.11703571197E+01  0.11703571197E+01  0.00000000000E+00 0.  1.
        1   -1    0    0  501    0  0.00000000000E+00 -0.00000000000E+00 -0.17762209509E+04  0.17762209509E+04  0.00000000000E+00 0. -1.
       23    1    1    2    0    0  0.00000000000E+00 -0.00000000000E+00 -0.17750505937E+04  0.17773913080E+04  0.91188000000E+02 0.  1.
<scales pt_clust_3="100000.00000"></scales>
<rwgt>
<wgt id='bias'>   0.1000000E+01</wgt>
</rwgt>
<clustering>
<clus scale="   91.188">  2  3  1 -1</clus>
</clustering>
</event>
<event>
 3   1  0.8512900E+003  0.9118800E+02  0.7546771E-02  0.1180022E+00
        4   -1    0    0  501    0  0.00000000000E+00  0.00000000000E+00  0.27468341953E+03  0.27468341953E+03  0.00000000000E+00 0. -1.
       -4   -1    0    0    0  501 -0.00000000000E+00 -0.00000000000E+00 -0.75680317347E+01  0.75680317347E+01  0.00000000000E+00 0.  1.
       23    1    1    2    0    0  0.00000000000E+00  0.00000000000E+00  0.26711538780E+03  0.28225145127E+03  0.91188000000E+02 0. -1.
<scales pt_clust_3="100000.00000"></scales>
<rwgt>
<wgt id='bias'>   0.1000000E+01</wgt>
</rwgt>
<clustering>
<clus scale="   91.188">  1  3  2 -1</clus>
</clustering>
</event>
<event>
 4   2  0.8512900E+003  0.9273791E+02  0.7546771E-02  0.1177029E+00
       21   -1    0    0  501  502  0.00000000000E+00  0.00000000000E+00  0.25613663718E+01  0.25613663718E+01  0.00000000000E+00 0. -1.
       -1   -1    0    0    0  501 -0.00000000000E+00 -0.00000000000E+00 -0.12202622788E+04  0.12202622788E+04  0.00000000000E+00 0.  1.
       23    1    1    2    0    0  0.11600306758E+02  0.12267932865E+02 -0.11022922561E+04  0.11061864845E+04  0.91188000000E+02 0.  0.
       -1    1    1    2    0  502 -0.11600306758E+02 -0.12267932865E+02 -0.11540865639E+03  0.11663716073E+03  0.00000000000E+00 0.  1.
<scales pt_clust_3="100000.00000" pt_clust_4="16.88400"></scales>
<rwgt>
<wgt id='bias'>   0.1000000E+01</wgt>
</rwgt>
<clustering>
<clus scale="   16.884">  1  4  2 -1</clus>
<clus scale="   16.884">  1  3  2 -1</clus>
</clustering>
</event>
<event>
 4   2  0.8512900E+003  0.1092989E+03  0.7546771E-02  0.1148661E+00
       21   -1    0    0  501  502  0.00000000000E+00  0.00000000000E+00  0.19210230809E+02  0.19210230809E+02  0.00000000000E+00 0.  1.
        2   -1    0    0  502    0 -0.00000000000E+00 -0.00000000000E+00 -0.37812268822E+03  0.37812268822E+03  0.00000000000E+00 0. -1.
       23    1    1    2    0    0 -0.59772264501E+02 -0.76333514544E+01 -0.21129279290E+03  0.23788839260E+03  0.91188000000E+02 0.  1.
        2    1    1    2  501    0  0.59772264501E+02  0.76333514544E+01 -0.14761966451E+03  0.15944452642E+03  0.00000000000E+00 0. -1.
<scales pt_clust_3="100000.00000" pt_clust_4="60.25774"></scales>
<rwgt>
<wgt id='bias'>   0.1000000E+01</wgt>
</rwgt>
<clustering>
<clus scale="   60.258">  1  4  2 -1</clus>
<clus scale="   60.258">  1  3  2 -1</clus>
</clustering>
</event>
<event>
 4   2  0.8512900E+003  0.9547023E+02  0.7546771E-02  0.1171910E+00
       -5   -1    0    0    0  501 -0.00000000000E+00  0.00000000000E+00  0.44661129754E+01  0.44661129754E+01  0.00000000000E+00 0.  1.
        5   -1    0    0  502    0  0.00000000000E+00 -0.00000000000E+00 -0.15271865084E+04  0.15271865084E+04  0.00000000000E+00 0. -1.
       23    1    1    2    0    0 -0.21358398236E+02  0.18523842686E+02 -0.14568043384E+04  0.14599292605E+04  0.91188000000E+02 0. -1.
       21    1    1    2  502  501  0.21358398236E+02 -0.18523842686E+02 -0.65916057085E+02  0.71723360941E+02  0.00000000000E+00 0.  1.
<scales pt_clust_3="100000.00000" pt_clust_4="28.27214"></scales>
<rwgt>
<wgt id='bias'>   0.1000000E+01</wgt>
</rwgt>
<clustering>
<clus scale="   28.272">  1  4  2 -1</clus>
<clus scale="   95.470">  2  3  1 -1</clus>
</clustering>
</event>
<event>
 3   1  0.8512900E+003  0.9118800E+02  0.7546771E-02  0.1180022E+00
        1   -1    0    0  501    0  0.00000000000E+00  0.00000000000E+00  0.34870268177E+01  0.34870268177E+01  0.00000000000E+00 0. -1.
       -1   -1    0    0    0  501 -0.00000000000E+00 -0.00000000000E+00 -0.59615625135E+03  0.59615625135E+03  0.00000000000E+00 0.  1.
       23    1    1    2    0    0  0.00000000000E+00  0.00000000000E+00 -0.59266922453E+03  0.59964327816E+03  0.91188000000E+02 0. -1.
<scales pt_clust_3="100000.00000"></scales>
<rwgt>
<wgt id='bias'>   0.1000000E+01</wgt>
</rwgt>
<clustering>
<clus scale="   91.188">  1  3  2 -1</clus>
</clustering>
</event>
<event>
 3   1  0.8512900E+003  0.9118800E+02  0.7546771E-02  0.1180022E+00
        3   -1    0    0  501    0  0.00000000000E+00  0.00000000000E+00  0.91093854289E+02  0.91093854289E+02  0.00000000000E+00 0. -1.
       -3   -1    0    0    0  501 -0.00000000000E+00 -0.00000000000E+00 -0.22820560753E+02  0.22820560753E+02  0.00000000000E+00 0.  1.
       23    1    1    2    0    0  0.00000000000E+00  0.00000000000E+00  0.68273293536E+02  0.11391441504E+03  0.91188000000E+02 0. -1.
<scales pt_clust_3="100000.00000"></scales>
<rwgt>
<wgt id='bias'>   0.1000000E+01</wgt>
</rwgt>
<clustering>
<clus scale="   91.188">  1  3  2 -1</clus>
</clustering>
</event>
<event>
 3   1  0.8512900E+003  0.9118800E+02  0.7546771E-02  0.1180022E+00
       -5   -1    0    0    0  501 -0.00000000000E+00  0.00000000000E+00  0.99896689185E+03  0.99896689185E+03  0.00000000000E+00 0. -1.
        5   -1    0    0  501    0  0.00000000000E+00 -0.00000000000E+00 -0.20809626955E+01  0.20809626955E+01  0.00000000000E+00 0.  1.
       23    1    1    2    0    0  0.00000000000E+00 -0.00000000000E+00  0.99688592916E+03  0.10010478545E+04  0.91188000000E+02 0. -1.
<scales pt_clust_3="100000.00000"></scales>
<rwgt>
<wgt id='bias'>   0.1000000E+01</wgt>
</rwgt>
<clustering>
<clus scale="   91.188">  2  3  1 -1</clus>
</clustering>
</event>
<event>
 4   2  0.8512900E+003  0.9334843E+02  0.7546771E-02  0.1175868E+00
       21   -1    0    0  501  502  0.00000000000E+00  0.00000000000E+00  0.36392653185E+02  0.36392653185E+02  0.00000000000E+00 0.  1.
        1   -1    0    0  502    0 -0.00000000000E+00 -0.00000000000E+00 -0.88230879581E+02  0.88230879581E+02  0.00000000000E+00 0. -1.
       23    1    1    2    0    0  0.17507696881E+02 -0.95999617270E+01 -0.43477638196E+02  0.10297686673E+03  0.91188000000E+02 0.  0.
        1    1    1    2  501    0 -0.17507696881E+02  0.95999617270E+01 -0.83605882005E+01  0.21646666032E+02  0.00000000000E+00 0. -1.
<scales pt_clust_3="100000.00000" pt_clust_4="19.96694"></scales>
<rwgt>
<wgt id='bias'>   0.1000000E+01</wgt>
</rwgt>
<clustering>
<clus scale="   19.967">  1  4  2 -1</clus>
<clus scale="   19.967">  1  3  2 -1</clus>
</clustering>
</event>
<event>
 4   2  0.8512900E+003  0.2144916E+03  0.7546771E-02  0.1045486E+00
       -4   -1    0    0    0  501 -0.00000000000E+00  0.00000000000E+00  0.12610593953E+03  0.12610593953E+03  0.00000000000E+00 0.  1.
       21   -1    0    0  501  502  0.00000000000E+00 -0.00000000000E+00 -0.91206370576E+02  0.91206370576E+02  0.00000000000E+00 0.  1.
       23    1    1    2    0    0  0.69604243849E+02  0.42395521993E+02  0.53862683676E+02  0.13363596478E+03  0.91188000000E+02 0.  1.
       -4    1    1    2    0  502 -0.69604243849E+02 -0.42395521993E+02 -0.18963114721E+02  0.83676345324E+02  0.00000000000E+00 0.  1.
<scales pt_clust_3="100000.00000" pt_clust_4="100000.00000"></scales>
<rwgt>
<wgt id='bias'>   0.1000000E+01</wgt>
</rwgt>
<clustering>
<clus scale="   81.499">  3  4 -1 -1</clus>
<clus scale="  214.492">  2  3  1 -1</clus>
</clustering>
</event>
<event>
 5   3  0.8512900E+003  0.1235293E+03  0.7546771E-02  0.1128410E+00
       -1   -1    0    0    0  501 -0.00000000000E+00  0.00000000000E+00  0.33598931281E+03  0.33598931281E+03  0.00000000000E+00 0.  1.
       21   -1    0    0  503  502  0.00000000000E+00 -0.00000000000E+00 -0.24628206685E+03  0.24628206685E+03  0.00000000000E+00 0. -1.
       23    1    1    2    0    0 -0.58058946036E+02  0.61196714540E+02  0.27353663301E+03  0.30042206981E+03  0.91188000000E+02 0.  1.
       21    1    1    2  503  501  0.63687600065E+02 -0.30304093914E+02 -0.22170293582E+03  0.23265132766E+03  0.00000000000E+00 0. -1.
       -1    1    1    2    0  502 -0.56286540285E+01 -0.30892620626E+02  0.37873548764E+02  0.49197982187E+02  0.00000000000E+00 0.  1.
<scales pt_clust_3="100000.00000" pt_clust_4="83.33207" pt_clust_5="31.40122"></scales>
<rwgt>
<wgt id='bias'>   0.1000000E+01</wgt>
</rwgt>
<clustering>
<clus scale="   31.401">  2  5  1 -1</clus>
<clus scale="   83.332">  2  4  1 -1</clus>
<clus scale="   31.401">  2  3  1 -1</clus>
</clustering>
</event>
<event>
 5   3  0.8512900E+003  0.1034612E+03  0.7546771E-02  0.1157980E+00
       -1   -1    0    0    0  501 -0.00000000000E+00  0.00000000000E+00  0.30527283627E+01  0.30527283627E+01  0.00000000000E+00 0.  1.
        2   -1    0    0  501    0  0.00000000000E+00 -0.00000000000E+00 -0.15627537639E+05  0.15627537639E+05  0.00000000000E+00 0. -1.
       23    1    1    2    0    0 -0.70618139595E+01 -0.53509955566E+02 -0.14332924810E+05  0.14333316505E+05  0.91188000000E+02 0. -1.
        2    1    1    2  502    0 -0.31721452943E+02  0.23479533134E+02 -0.10521866349E+04  0.10529265187E+04  0.00000000000E+00 0. -1.
       -1    1    1    2    0  502  0.38783266903E+02  0.30030422432E+02 -0.23937346624E+03  0.24434734376E+03  0.00000000000E+00 0.  1.
<scales pt_clust_3="100000.00000" pt_clust_4="39.46569" pt_clust_5="48.87709"></scales>
<rwgt>
<wgt id='bias'>   0.1000000E+01</wgt>
</rwgt>
<clustering>
<clus scale="   39.466">  2  4  1 -1</clus>
<clus scale="   48.877">  2  5  1 -1</clus>
<clus scale="   39.466">  2  3  1 -1</clus>
</clustering>
</event>
<event>
 3   1  0.8512900E+003  0.9118800E+02  0.7546771E-02  0.1180022E+00
        4   -1    0    0  501    0  0.00000000000E+00  0.00000000000E+00  0.29200868220E+01  0.29200868220E+01  0.00000000000E+00 0. -1.
       -4   -1    0    0    0  501 -0.00000000000E+00 -0.00000000000E+00 -0.71190103675E+03  0.71190103675E+03  0.00000000000E+00 0.  1.
       23    1    1    2    0    0  0.00000000000E+00  0.00000000000E+00 -0.70898094993E+03  0.71482112357E+03  0.91188000000E+02 0. -1.
<scales pt_clust_3="100000.00000"></scales>
<rwgt>
<wgt id='bias'>   0.1000000E+01</wgt>
</rwgt>
<clustering>
<clus scale="   91.188">  1  3  2 -1</clus>
</clustering>
</event>
<event>
 3   1  0.8512900E+003  0.9118800E+02  0.7546771E-02  0.1180022E+00
       -4   -1    0    0    0  501 -0.00000000000E+00  0.00000000000E+00  0.60655664926E+03  0.60655664926E+03  0.00000000000E+00 0.  1.
        4   -1    0    0  501    0  0.00000000000E+00 -0.00000000000E+00 -0.34272360851E+01  0.34272360851E+01  0.00000000000E+00 0. -1.
       23    1    1    2    0    0  0.00000000000E+00 -0.00000000000E+00  0.60312941318E+03  0.60998388535E+03  0.91188000000E+02 0.  1.
<scales pt_clust_3="100000.00000"></scales>
<rwgt>
<wgt id='bias'>   0.1000000E+01</wgt>
</rwgt>
<clustering>
<clus scale="   91.188">  2  3  1 -1</clus>
</clustering>
</event>
<event>
 4   2  0.8512900E+003  0.9188709E+02  0.7546771E-02  0.1178664E+00
        3   -1    0    0  502    0 -0.00000000000E+00  0.00000000000E+00  0.24470684749E+01  0.24470684749E+01  0.00000000000E+00 0. -1.
       21   -1    0    0  501  502  0.00000000000E+00 -0.00000000000E+00 -0.12321715939E+04  0.12321715939E+04  0.00000000000E+00 0.  1.
       23    1    1    2    0    0 -0.11275357324E+02  0.92287732284E+00 -0.89532563611E+03  0.90002846144E+03  0.91188000000E+02 0. -1.
        3    1    1    2  501    0  0.11275357324E+02 -0.92287732284E+00 -0.33439888936E+03  0.33459020098E+03  0.00000000000E+00 0. -1.
<scales pt_clust_3="100000.00000" pt_clust_4="11.31306"></scales>
<rwgt>
<wgt id='bias'>   0.1000000E+01</wgt>
</rwgt>
<clustering>
<clus scale="   11.313">  2  4  1 -1</clus>
<clus scale="   11.313">  2  3  1 -1</clus>
</clustering>
</event>
<event>
 5   3  0.8512900E+003  0.1616774E+02  0.7546771E-02  0.1177273E+00
        4   -1    0    0  502    0  0.00000000000E+00  0.00000000000E+00  0.16105516919E+04  0.16105516919E+04  0.00000000000E+00 0. -1.
       -4   -1    0    0    0  501 -0.00000000000E+00 -0.00000000000E+00 -0.72223203892E+01  0.72223203892E+01  0.00000000000E+00 0.  1.
       23    1    1    2    0    0  0.16376945348E+02  0.20056590000E+02  0.42836009044E+03  0.43872324940E+03  0.91188000000E+02 0.  1.
       21    1    1    2  502  503 -0.79189629726E+01 -0.70580327327E+01  0.11471648337E+04  0.11472138778E+04  0.00000000000E+00 0. -1.
       21    1    1    2  503  501 -0.84579823752E+01 -0.12998557267E+02  0.27804447400E+02  0.31836885088E+02  0.00000000000E+00 0.  1.
<scales pt_clust_3="100000.00000" pt_clust_4="10.60782" pt_clust_5="16.16774"></scales>
<rwgt>
<wgt id='bias'>   0.1000000E+01</wgt>
</rwgt>
<clustering>
<clus scale="   10.608">  1  4  2 -1</clus>
<clus scale="   16.168">  2  5  1 -1</clus>
<clus scale="   10.608">  1  3  2 -1</clus>
</clustering>
</event>
<event>
 3   1  0.8512900E+003  0.9118800E+02  0.7546771E-02  0.1180022E+00
       -3   -1    0    0    0  501 -0.00000000000E+00  0.00000000000E+00  0.83667433284E+01  0.83667433284E+01  0.00000000000E+00 0.  1.
        3   -1    0    0  501    0  0.00000000000E+00 -0.00000000000E+00 -0.24846140899E+03  0.24846140899E+03  0.00000000000E+00 0. -1.
       23    1    1    2    0    0  0.00000000000E+00 -0.00000000000E+00 -0.24009466566E+03  0.25682815232E+03  0.91188000000E+02 0.  1.
<scales pt_clust_3="100000.00000"></scales>
<rwgt>
<wgt id='bias'>   0.1000000E+01</wgt>
</rwgt>
<clustering>
<clus scale="   91.188">  2  3  1 -1</clus>
</clustering>
</event>
<event>
 4   2  0.8512900E+003  0.9489980E+02  0.7546771E-02  0.1172963E+00
       -2   -1    0    0    0  501 -0.00000000000E+00  0.00000000000E+00  0.44475720923E+04  0.44475720923E+04  0.00000000000E+00 0.  1.
        2   -1    0    0  502    0  0.00000000000E+00 -0.00000000000E+00 -0.82881774569E+00  0.82881774569E+00  0.00000000000E+00 0. -1.
       23    1    1    2    0    0 -0.18162422505E+02  0.18995998028E+02  0.33601852028E+04  0.33615250363E+04  0.91188000000E+02 0.  1.
       21    1    1    2  502  501  0.18162422505E+02 -0.18995998028E+02  0.10865580718E+04  0.10868758737E+04  0.00000000000E+00 0. -1.
<scales pt_clust_3="100000.00000" pt_clust_4="26.28158"></scales>
<rwgt>
<wgt id='bias'>   0.1000000E+01</wgt>
</rwgt>
<clustering>
<clus scale="   26.282">  1  4  2 -1</clus>
<clus scale="   94.900">  2  3  1 -1</clus>
</clustering>
</event>
<event>
 5   3  0.8512900E+003  0.6453021E+02  0.7546771E-02  0.1144996E+00
       21   -1    0    0  501  502  0.00000000000E+00  0.00000000000E+00  0.28487960132E+01  0.28487960132E+01  0.00000000000E+00 0. -1.
        2   -1    0    0  503    0 -0.00000000000E+00 -0.00000000000E+00 -0.96687618727E+04  0.96687618727E+04  0.00000000000E+00 0. -1.
       23    1    1    2    0    0  0.60869612764E+02  0.44862811627E+02 -0.42923946357E+04  0.42940289638E+04  0.91188000000E+02 0. -1.
       21    1    1    2  503  502 -0.89615629620E+01 -0.87111773233E+01 -0.48812098721E+04  0.48812258716E+04  0.00000000000E+00 0. -1.
        2    1    1    2  501    0 -0.51908049802E+02 -0.36151634303E+02 -0.49230856882E+03  0.49635583328E+03  0.00000000000E+00 0. -1.
<scales pt_clust_3="100000.00000" pt_clust_4="12.49777" pt_clust_5="64.53021"></scales>
<rwgt>
<wgt id='bias'>   0.1000000E+01</wgt>
</rwgt>
<clustering>
<clus scale="   12.498">  2  4  1 -1</clus>
<clus scale="   64.530">  1  5  2 -1</clus>
<clus scale="   64.530">  1  3  2 -1</clus>
</clustering>
</event>
<event>
 4   2  0.8512900E+003  0.9174421E+02  0.7546771E-02  0.1178941E+00
       -3   -1    0    0    0  501 -0.00000000000E+00  0.00000000000E+00  0.86358332090E+01  0.86358332090E+01  0.00000000000E+00 0.  1.
        3   -1    0    0  502    0  0.00000000000E+00 -0.00000000000E+00 -0.30305932168E+03  0.30305932168E+03  0.00000000000E+00 0. -1.
       23    1    1    2    0    0  0.31160121229E+00  0.10082203068E+02 -0.27327740953E+03  0.28826644241E+03  0.91188000000E+02 0. -1.
       21    1    1    2  502  501 -0.31160121229E+00 -0.10082203068E+02 -0.21146078938E+02  0.23428712480E+02  0.00000000000E+00 0.  1.
<scales pt_clust_3="100000.00000" pt_clust_4="10.08702"></scales>
<rwgt>
<wgt id='bias'>   0.1000000E+01</wgt>
</rwgt>
<clustering>
<clus scale="   10.087">  1  4  2 -1</clus>
<clus scale="   91.744">  2  3  1 -1</clus>
</clustering>
</event>
<event>
 3   1  0.8512900E+003  0.9118800E+02  0.7546771E-02  0.1180022E+00
        4   -1    0    0  501    0  0.00000000000E+00  0.00000000000E+00  0.57766086762E+02  0.57766086762E+02  0.00000000000E+00 0. -1.
       -4   -1    0    0    0  501 -0.00000000000E+00 -0.00000000000E+00 -0.35986734649E+02  0.35986734649E+02  0.00000000000E+00 0.  1.
       23    1    1    2    0    0  0.00000000000E+00  0.00000000000E+00  0.21779352113E+02  0.93752821411E+02  0.91188000000E+02 0. -1.
<scales pt_clust_3="100000.00000"></scales>
<rwgt>
<wgt id='bias'>   0.1000000E+01</wgt>
</rwgt>
<clustering>
<clus scale="   91.188">  1  3  2 -1</clus>
</clustering>
</event>
<event>
 5   3  0.8512900E+003  0.9763563E+02  0.7546771E-02  0.1167988E+00
        1   -1    0    0  503    0 -0.00000000000E+00  0.00000000000E+00  0.20733133359E+02  0.20733133359E+02  0.00000000000E+00 0. -1.
       21   -1    0    0  501  502  0.00000000000E+00 -0.00000000000E+00 -0.29524565363E+03  0.29524565363E+03  0.00000000000E+00 0.  1.
       23    1    1    2    0    0  0.74071230413E+00  0.31122844143E+02 -0.12907030707E+03  0.16107009528E+03  0.91188000000E+02 0. -1.
       21    1    1    2  503  502 -0.14005992743E+02 -0.35487260860E+02 -0.90360774991E+02  0.98084571534E+02  0.00000000000E+00 0. -1.
        1    1    1    2  501    0  0.13265280439E+02  0.43644167172E+01 -0.55081438209E+02  0.56824120174E+02  0.00000000000E+00 0. -1.
<scales pt_clust_3="100000.00000" pt_clust_4="34.89219" pt_clust_5="13.96481"></scales>
<rwgt>
<wgt id='bias'>   0.1000000E+01</wgt>
</rwgt>
<clustering>
<clus scale="   13.965">  2  5  1 -1</clus>
<clus scale="   34.892">  2  4  1 -1</clus>
<clus scale="   13.965">  2  3  1 -1</clus>
</clustering>
</event>
<event>
 3   1  0.8512900E+003  0.9118800E+02  0.7546771E-02  0.1180022E+00
        5   -1    0    0  501    0  0.00000000000E+00  0.00000000000E+00  0.38079069917E+01  0.38079069917E+01  0.00000000000E+00 0. -1.
       -5   -1    0    0    0  501 -0.00000000000E+00 -0.00000000000E+00 -0.54592006594E+03  0.54592006594E+03  0.00000000000E+00 0.  1.
       23    1    1    2    0    0  0.00000000000E+00  0.00000000000E+00 -0.54211215895E+03  0.54972797293E+03  0.91188000000E+02 0. -1.
<scales pt_clust_3="100000.00000"></scales>
<rwgt>
<wgt id='bias'>   0.1000000E+01</wgt>
</rwgt>
<clustering>
<clus scale="   91.188">  1  3  2 -1</clus>
</clustering>
</event>
<event>
 4   2  0.8512900E+003  0.9902060E+02  0.7546771E-02  0.1165539E+00
        2   -1    0    0  502    0  0.00000000000E+00  0.00000000000E+00  0.39240663744E+01  0.39240663744E+01  0.00000000000E+00 0. -1.
       -2   -1    0    0    0  501 -0.00000000000E+00 -0.00000000000E+00 -0.23234919494E+04  0.23234919494E+04  0.00000000000E+00 0.  1.
       23    1    1    2    0    0 -0.31540928274E+02 -0.22248543213E+02 -0.65883709051E+03  0.66623673796E+03  0.91188000000E+02 0. -1.
       21    1    1    2  502  501  0.31540928274E+02  0.22248543213E+02 -0.16607307925E+04  0.16611792778E+04  0.00000000000E+00 0. -1.
<scales pt_clust_3="100000.00000" pt_clust_4="38.59829"></scales>
<rwgt>
<wgt id='bias'>   0.1000000E+01</wgt>
</rwgt>
<clustering>
<clus scale="   38.598">  2  4  1 -1</clus>
<clus scale="   99.021">  1  3  2 -1</clus>
</clustering>
</event>
<event>
 3   1  0.8512900E+003  0.9118800E+02  0.7546771E-02  0.1180022E+00
       -1   -1    0    0    0  501 -0.00000000000E+00  0.00000000000E+00  0.51349032508E+03  0.51349032508E+03  0.00000000000E+00 0.  1.
        1   -1    0    0  501    0  0.00000000000E+00 -0.00000000000E+00 -0.40483972812E+01  0.40483972812E+01  0.00000000000E+00 0. -1.
       23    1    1    2    0    0  0.00000000000E+00 -0.00000000000E+00  0.50944192780E+03  0.51753872237E+03  0.91188000000E+02 0.  1.
<scales pt_clust_3="100000.00000"></scales>
<rwgt>
<wgt id='bias'>   0.1000000E+01</wgt>
</rwgt>
<clustering>
<clus scale="   91.188">  2  3  1 -1</clus>
</clustering>
</event>
<event>
 5   3  0.8512900E+003  0.1055373E+03  0.7546771E-02  0.1154589E+00
        5   -1    0    0  502    0 -0.00000000000E+00  0.00000000000E+00  0.42038828335E+02  0.42038828335E+02  0.00000000000E+00 0. -1.
       21   -1    0    0  503  502  0.00000000000E+00 -0.00000000000E+00 -0.53258524520E+03  0.53258524520E+03  0.00000000000E+00 0.  1.
       23    1    1    2    0    0  0.44267362417E+01 -0.60509186402E+02 -0.90635202065E+02  0.14216521667E+03  0.91188000000E+02 0.  0.
       21    1    1    2  503  501  0.11182371376E+02  0.12018091616E+02 -0.37569674250E+03  0.37605521174E+03  0.00000000000E+00 0.  1.
        5    1    1    2  501    0 -0.15609107618E+02  0.48491094786E+02 -0.24214472298E+02  0.56403645121E+02  0.00000000000E+00 0. -1.
<scales pt_clust_3="100000.00000" pt_clust_4="16.41584" pt_clust_5="53.13070"></scales>
<rwgt>
<wgt id='bias'>   0.1000000E+01</wgt>
</rwgt>
<clustering>
<clus scale="   16.416">  2  4  1 -1</clus>
<clus scale="   53.131">  2  5  1 -1</clus>
<clus scale="   16.416">  2  3  1 -1</clus>
</clustering>
</event>
<event>
 3   1  0.8512900E+003  0.9118800E+02  0.7546771E-02  0.1180022E+00
        1   -1    0    0  501    0  0.00000000000E+00  0.00000000000E+00  0.44514828269E+00  0.44514828269E+00  0.00000000000E+00 0. -1.
       -1   -1    0    0    0  501 -0.00000000000E+00 -0.00000000000E+00 -0.46699334061E+04  0.46699334061E+04  0.00000000000E+00 0.  1.
       23    1    1    2    0    0  0.00000000000E+00  0.00000000000E+00 -0.46694882578E+04  0.46703785544E+04  0.91188000000E+02 0. -1.
<scales pt_clust_3="100000.00000"></scales>
<rwgt>
<wgt id='bias'>   0.1000000E+01</wgt>
</rwgt>
<clustering>
<clus scale="   91.188">  1  3  2 -1</clus>
</clustering>
</event>
<event>
 3   1  0.8512900E+003  0.9118800E+02  0.7546771E-02  0.1180022E+00
       -3   -1    0    0    0  501 -0.00000000000E+00  0.00000000000E+00  0.22500628053E+02  0.22500628053E+02  0.00000000000E+00 0.  1.
        3   -1    0    0  501    0  0.00000000000E+00 -0.00000000000E+00 -0.92389102700E+02  0.92389102700E+02  0.00000000000E+00 0. -1.
       23    1    1    2    0    0  0.00000000000E+00 -0.00000000000E+00 -0.69888474647E+02  0.11488973075E+03  0.91188000000E+02 0.  1.
<scales pt_clust_3="100000.00000"></scales>
<rwgt>
<wgt id='bias'>   0.1000000E+01</wgt>
</rwgt>
<clustering>
<clus scale="   91.188">  2  3  1 -1</clus>
</clustering>
</event>
<event>
 3   1  0.8512900E+003  0.9118800E+02  0.7546771E-02  0.1180022E+00
        2   -1    0    0  501    0  0.00000000000E+00  0.00000000000E+00  0.83268846909E+04  0.83268846909E+04  0.00000000000E+00 0.  1.
       -2   -1    0    0    0  501 -0.00000000000E+00 -0.00000000000E+00 -0.24965072931E+00  0.24965072931E+00  0.00000000000E+00 0. -1.
       23    1    1    2    0    0  0.00000000000E+00  0.00000000000E+00  0.83266350402E+04  0.83271343416E+04  0.91188000000E+02 0.  1.
<scales pt_clust_3="100000.00000"></scales>
<rwgt>
<wgt id='bias'>   0.1000000E+01</wgt>
</rwgt>
<clustering>
<clus scale="   91.188">  1  3  2 -1</clus>
</clustering>
</event>
<event>
 4   2  0.8512900E+003  0.1085101E+03  0.7546771E-02  0.1149882E+00
        5   -1    0    0  502    0 -0.00000000000E+00  0.00000000000E+00  0.21306804815E+03  0.21306804815E+03  0.00000000000E+00 0. -1.
       21   -1    0    0  501  502  0.00000000000E+00 -0.00000000000E+00 -0.32878872668E+02  0.32878872668E+02  0.00000000000E+00 0.  1.
       23    1    1    2    0    0  0.26346363622E+02 -0.52583848136E+02  0.11338624665E+03  0.15694229587E+03  0.91188000000E+02 0.  1.
        5    1    1    2  501    0 -0.26346363622E+02  0.52583848136E+02  0.66802928841E+02  0.89004624951E+02  0.00000000000E+00 0. -1.
<scales pt_clust_3="100000.00000" pt_clust_4="58.81493"></scales>
<rwgt>
<wgt id='bias'>   0.1000000E+01</wgt>
</rwgt>
<clustering>
<clus scale="   58.815">  2  4  1 -1</clus>
<clus scale="   58.815">  2  3  1 -1</clus>
</clustering>
</event>
<event>
 4   2  0.8512900E+003  0.9800599E+02  0.7546771E-02  0.1167329E+00
        3   -1    0    0  502    0 -0.00000000000E+00  0.00000000000E+00  0.91126519254E+01  0.91126519254E+01  0.00000000000E+00 0. -1.
       21   -1    0    0  501  502  0.00000000000E+00 -0.00000000000E+00 -0.49421275790E+03  0.49421275790E+03  0.00000000000E+00 0. -1.
       23    1    1    2    0    0  0.38801418362E+01 -0.35705280126E+02 -0.33969699810E+03  0.35355229371E+03  0.91188000000E+02 0. -1.
        3    1    1    2  501    0 -0.38801418362E+01  0.35705280126E+02 -0.14540310787E+03  0.14977311611E+03  0.00000000000E+00 0. -1.
<scales pt_clust_3="100000.00000" pt_clust_4="35.91549"></scales>
<rwgt>
<wgt id='bias'>   0.1000000E+01</wgt>
</rwgt>
<clustering>
<clus scale="   35.915">  2  4  1 -1</clus>
<clus scale="   35.915">  2  3  1 -1</clus>
</clustering>
</event>
<event>
 3   1  0.8512900E+003  0.9118800E+02  0.7546771E-02  0.1180022E+00
        2   -1    0    0  501    0  0.00000000000E+00  0.00000000000E+00  0.42830877662E+04  0.42830877662E+04  0.00000000000E+00 0.  1.
       -2   -1    0    0    0  501 -0.00000000000E+00 -0.00000000000E+00 -0.48535377968E+00  0.48535377968E+00  0.00000000000E+00 0. -1.
       23    1    1    2    0    0  0.00000000000E+00  0.00000000000E+00  0.42826024124E+04  0.42835731200E+04  0.91188000000E+02 0.  1.
<scales pt_clust_3="100000.00000"></scales>
<rwgt>
<wgt id='bias'>   0.1000000E+01</wgt>
</rwgt>
<clustering>
<clus scale="   91.188">  1  3  2 -1</clus>
</clustering>
</event>
<event>
 5   3  0.8512900E+003  0.1192822E+03  0.7546771E-02  0.1097601E+00
        3   -1    0    0  503    0 -0.00000000000E+00  0.00000000000E+00  0.19709604400E+03  0.19709604400E+03  0.00000000000E+00 0. -1.
       21   -1    0    0  501  502  0.00000000000E+00 -0.00000000000E+00 -0.41297485411E+03  0.41297485411E+03  0.00000000000E+00 0. -1.
       23    1    1    2    0    0 -0.14209836632E+02  0.13767526563E+03  0.96888170541E+02  0.19198689319E+03  0.91188000000E+02 0. -1.
       21    1    1    2  503  502 -0.67849302541E+02 -0.50350844867E+02 -0.14525391089E+01  0.84503522435E+02  0.00000000000E+00 0. -1.
        3    1    1    2  501    0  0.82059139173E+02 -0.87324420762E+02 -0.31131444154E+03  0.33358048249E+03  0.00000000000E+00 0. -1.
<scales pt_clust_3="100000.00000" pt_clust_4="84.49104" pt_clust_5="119.28221"></scales>
<rwgt>
<wgt id='bias'>   0.1000000E+01</wgt>
</rwgt>
<clustering>
<clus scale="   84.491">  1  4  2 -1</clus>
<clus scale="  119.282">  2  5  1 -1</clus>
<clus scale="  119.282">  2  3  1 -1</clus>
</clustering>
</event>
<event>
 4   2  0.8512900E+003  0.9198433E+02  0.7546771E-02  0.1178476E+00
       -3   -1    0    0    0  501 -0.00000000000E+00  0.00000000000E+00  0.67968403705E+00  0.67968403705E+00  0.00000000000E+00 0.  1.
        3   -1    0    0  502    0  0.00000000000E+00 -0.00000000000E+00 -0.65300910630E+04  0.65300910630E+04  0.00000000000E+00 0. -1.
       23    1    1    2    0    0 -0.86146583316E+01 -0.84648416750E+01 -0.31618678094E+04  0.31632055200E+04  0.91188000000E+02 0.  1.
       21    1    1    2  502  501  0.86146583316E+01  0.84648416750E+01 -0.33675435695E+04  0.33675652271E+04  0.00000000000E+00 0. -1.
<scales pt_clust_3="100000.00000" pt_clust_4="12.07749"></scales>
<rwgt>
<wgt id='bias'>   0.1000000E+01</wgt>
</rwgt>
<clustering>
<clus scale="   12.077">  2  4  1 -1</clus>
<clus scale="   12.077">  2  3  1 -1</clus>
</clustering>
</event>
<event>
 4   2  0.8512900E+003  0.9435050E+02  0.7546771E-02  0.1173984E+00
       21   -1    0    0  501  502  0.00000000000E+00  0.00000000000E+00  0.29166429803E+01  0.29166429803E+01  0.00000000000E+00 0. -1.
       -2   -1    0    0    0  501 -0.00000000000E+00 -0.00000000000E+00 -0.12815618993E+04  0.12815618993E+04  0.00000000000E+00 0.  1.
       23    1    1    2    0    0 -0.20406506503E+02  0.13051432420E+02 -0.11233673683E+04  0.11273226073E+04  0.91188000000E+02 0. -1.
       -2    1    1    2    0  502  0.20406506503E+02 -0.13051432420E+02 -0.15527788808E+03  0.15715593505E+03  0.00000000000E+00 0.  1.
<scales pt_clust_3="100000.00000" pt_clust_4="24.22324"></scales>
<rwgt>
<wgt id='bias'>   0.1000000E+01</wgt>
</rwgt>
<clustering>
<clus scale="   24.223">  1  4  2 -1</clus>
<clus scale="   24.223">  1  3  2 -1</clus>
</clustering>
</event>
<event>
 3   1  0.8512900E+003  0.9118800E+02  0.7546771E-02  0.1180022E+00
       -3   -1    0    0    0  501 -0.00000000000E+00  0.00000000000E+00  0.95680603455E+01  0.95680603455E+01  0.00000000000E+00 0.  1.
        3   -1    0    0  501    0  0.00000000000E+00 -0.00000000000E+00 -0.21726585754E+03  0.21726585754E+03  0.00000000000E+00 0. -1.
       23    1    1    2    0    0  0.00000000000E+00 -0.00000000000E+00 -0.20769779720E+03  0.22683391789E+03  0.91188000000E+02 0.  1.
<scales pt_clust_3="100000.00000"></scales>
<rwgt>
<wgt id='bias'>   0.1000000E+01</wgt>
</rwgt>
<clustering>
<clus scale="   91.188">  2  3  1 -1</clus>
</clustering>
</event>
<event>
 3   1  0.8512900E+003  0.9118800E+02  0.7546771E-02  0.1180022E+00
        1   -1    0    0  501    0  0.00000000000E+00  0.00000000000E+00  0.49229847198E+03  0.49229847198E+03  0.00000000000E+00 0. -1.
       -1   -1    0    0    0  501 -0.00000000000E+00 -0.00000000000E+00 -0.42226676586E+01  0.42226676586E+01  0.00000000000E+00 0.  1.
       23    1    1    2    0    0  0.00000000000E+00  0.00000000000E+00  0.48807580433E+03  0.49652113964E+03  0.91188000000E+02 0. -1.
<scales pt_clust_3="100000.00000"></scales>
<rwgt>
<wgt id='bias'>   0.1000000E+01</wgt>
</rwgt>
<clustering>
<clus scale="   91.188">  1  3  2 -1</clus>
</clustering>
</event>
<event>
 5   3  0.8512900E+003  0.9451099E+02  0.7546771E-02  0.1173685E+00
       -1   -1    0    0    0  501 -0.00000000000E+00  0.00000000000E+00  0.67054241626E+04  0.67054241626E+04  0.00000000000E+00 0.  1.
       21   -1    0    0  501  502  0.00000000000E+00 -0.00000000000E+00 -0.73918842167E+04  0.73918842167E+04  0.00000000000E+00 0. -1.
       23    1    1    2    0    0 -0.20246255095E+02 -0.13123969627E+02  0.66274681968E+04  0.66281394147E+04  0.91188000000E+02 0.  1.
       21    1    1    2  503  502  0.52588563750E+00 -0.20605932870E+02 -0.73866164386E+04  0.73866451987E+04  0.00000000000E+00 0. -1.
       -1    1    1    2    0  503  0.19720369457E+02  0.33729902496E+02  0.72688187730E+02  0.82523765846E+02  0.00000000000E+00 0.  1.
<scales pt_clust_3="100000.00000" pt_clust_4="20.61264" pt_clust_5="24.84101"></scales>
<rwgt>
<wgt id='bias'>   0.1000000E+01</wgt>
</rwgt>
<clustering>
<clus scale="   20.613">  2  4  1 -1</clus>
<clus scale="   24.841">  2  5  1 -1</clus>
<clus scale="   20.613">  2  3  1 -1</clus>
</clustering>
</event>
<event>
 5   3  0.8512900E+003  0.9569598E+02  0.7546771E-02  0.1171496E+00
       21   -1    0    0  501  502  0.00000000000E+00  0.00000000000E+00  0.22662194726E+03  0.22662194726E+03  0.00000000000E+00 0.  1.
        4   -1    0    0  503    0 -0.00000000000E+00 -0.00000000000E+00 -0.61867279610E+03  0.61867279610E+03  0.00000000000E+00 0. -1.
       23    1    1    2    0    0 -0.25321191441E+00  0.28110584719E+02 -0.51759811731E+03  0.52632055962E+03  0.91188000000E+02 0. -1.
       21    1    1    2  503  502 -0.10887488718E+02 -0.34543394067E-01  0.21976421024E+03  0.22003373992E+03  0.00000000000E+00 0.  1.
        4    1    1    2  501    0  0.11140700633E+02 -0.28076041325E+02 -0.94216941765E+02  0.98940443817E+02  0.00000000000E+00 0. -1.
<scales pt_clust_3="100000.00000" pt_clust_4="10.88754" pt_clust_5="29.02532"></scales>
<rwgt>
<wgt id='bias'>   0.1000000E+01</wgt>
</rwgt>
<clustering>
<clus scale="   10.888">  1  4  2 -1</clus>
<clus scale="   29.025">  1  5  2 -1</clus>
<clus scale="   10.888">  1  3  2 -1</clus>
</clustering>
</event>
<event>
 3   1  0.8512900E+003  0.9118800E+02  0.7546771E-02  0.1180022E+00
       -4   -1    0    0    0  501 -0.00000000000E+00  0.00000000000E+00  0.44753767952E+02  0.44753767952E+02  0.00000000000E+00 0. -1.
        4   -1    0    0  501    0  0.00000000000E+00 -0.00000000000E+00 -0.46450007030E+02  0.46450007030E+02  0.00000000000E+00 0.  1.
       23    1    1    2    0    0  0.00000000000E+00 -0.00000000000E+00 -0.16962390787E+01  0.91203774982E+02  0.91188000000E+02 0. -1.
<scales pt_clust_3="100000.00000"></scales>
<rwgt>
<wgt id='bias'>   0.1000000E+01</wgt>
</rwgt>
<clustering>
<clus scale="   91.188">  2  3  1 -1</clus>
</clustering>
</event>
<event>
 5   3  0.8512900E+003  0.9851276E+02  0.7546771E-02  0.1166432E+00
       -5   -1    0    0    0  501 -0.00000000000E+00  0.00000000000E+00  0.20756598424E+03  0.20756598424E+03  0.00000000000E+00 0.  1.
       21   -1    0    0  503  502  0.00000000000E+00 -0.00000000000E+00 -0.83761792540E+02  0.83761792540E+02  0.00000000000E+00 0. -1.
       23    1    1    2    0    0  0.84894901706E+01  0.36267467010E+02  0.12774552307E+03  0.16131202873E+03  0.91188000000E+02 0.  1.
       21    1    1    2  503  501 -0.11013248519E+02  0.13489950648E+01 -0.60794143435E+02  0.61798376246E+02  0.00000000000E+00 0. -1.
       -5    1    1    2    0  502  0.25237583489E+01 -0.37616462075E+02  0.56852812069E+02  0.68217371801E+02  0.00000000000E+00 0.  1.
<scales pt_clust_3="100000.00000" pt_clust_4="11.09556" pt_clust_5="37.27619"></scales>
<rwgt>
<wgt id='bias'>   0.1000000E+01</wgt>
</rwgt>
<clustering>
<clus scale="   11.096">  2  4  1 -1</clus>
<clus scale="   37.276">  2  5  1 -1</clus>
<clus scale="   11.096">  2  3  1 -1</clus>
</clustering>
</event>
<event>
 3   1  0.8512900E+003  0.9118800E+02  0.7546771E-02  0.1180022E+00
        2   -1    0    0  501    0  0.00000000000E+00  0.00000000000E+00  0.88175332208E+02  0.88175332208E+02  0.00000000000E+00 0. -1.
       -2   -1    0    0    0  501 -0.00000000000E+00 -0.00000000000E+00 -0.23575900243E+02  0.23575900243E+02  0.00000000000E+00 0.  1.
       23    1    1    2    0    0  0.00000000000E+00  0.00000000000E+00  0.64599431966E+02  0.11175123245E+03  0.91188000000E+02 0. -1.
<scales pt_clust_3="100000.00000"></scales>
<rwgt>
<wgt id='bias'>   0.1000000E+01</wgt>
</rwgt>
<clustering>
<clus scale="   91.188">  1  3  2 -1</clus>
</clustering>
</event>
<event>
 3   1  0.8512900E+003  0.9118800E+02  0.7546771E-02  0.1180022E+00
       -2   -1    0    0    0  501 -0.00000000000E+00  0.00000000000E+00  0.15599691377E+01  0.15599691377E+01  0.00000000000E+00 0.  1.
        2   -1    0    0  501    0  0.00000000000E+00 -0.00000000000E+00 -0.13325986943E+04  0.13325986943E+04  0.00000000000E+00 0. -1.
       23    1    1    2    0    0  0.00000000000E+00 -0.00000000000E+00 -0.13310387251E+04  0.13341586634E+04  0.91188000000E+02 0.  1.
<scales pt_clust_3="100000.00000"></scales>
<rwgt>
<wgt id='bias'>   0.1000000E+01</wgt>
</rwgt>
<clustering>
<clus scale="   91.188">  2  3  1 -1</clus>
</clustering>
</event>
<event>
 4   2  0.8512900E+003  0.9962781E+02  0.7546771E-02  0.1164480E+00
       -1   -1    0    0    0  501 -0.00000000000E+00  0.00000000000E+00  0.71565008544E+04  0.71565008544E+04  0.00000000000E+00 0.  1.
        1   -1    0    0  502    0  0.00000000000E+00 -0.00000000000E+00 -0.68355977102E+00  0.68355977102E+00  0.00000000000E+00 0. -1.
       23    1    1    2    0    0  0.65172467814E+01  0.39597671225E+02  0.52357518355E+04  0.52366996271E+04  0.91188000000E+02 0.  1.
       21    1    1    2  502  501 -0.65172467814E+01 -0.39597671225E+02  0.19200654591E+04  0.19204847871E+04  0.00000000000E+00 0. -1.
<scales pt_clust_3="100000.00000" pt_clust_4="40.13041"></scales>
<rwgt>
<wgt id='bias'>   0.1000000E+01</wgt>
</rwgt>
<clustering>
<clus scale="   40.130">  2  4  1 -1</clus>
<clus scale="   40.130">  2  3  1 -1</clus>
</clustering>
</event>
<event>
 3   1  0.8512900E+003  0.9118800E+02  0.7546771E-02  0.1180022E+00
       -5   -1    0    0    0  501 -0.00000000000E+00  0.00000000000E+00  0.16800429457E+04  0.16800429457E+04  0.00000000000E+00 0.  1.
        5   -1    0    0  501    0  0.00000000000E+00 -0.00000000000E+00 -0.12373569624E+01  0.12373569624E+01  0.00000000000E+00 0. -1.
       23    1    1    2    0    0  0.00000000000E+00 -0.00000000000E+00  0.16788055888E+04  0.16812803027E+04  0.91188000000E+02 0.  1.
<scales pt_clust_3="100000.00000"></scales>
<rwgt>
<wgt id='bias'>   0.1000000E+01</wgt>
</rwgt>
<clustering>
<clus scale="   91.188">  2  3  1 -1</clus>
</clustering>
</event>
<event>
 4   2  0.8512900E+003  0.9174970E+02  0.7546771E-02  0.1178930E+00
       21   -1    0    0  501  502  0.00000000000E+00  0.00000000000E+00  0.50340931222E+02  0.50340931222E+02  0.00000000000E+00 0. -1.
       -5   -1    0    0    0  501 -0.00000000000E+00 -0.00000000000E+00 -0.65024417287E+02  0.65024417287E+02  0.00000000000E+00 0.  1.
       23    1    1    2    0    0 -0.16824837650E+01 -0.99962324538E+01 -0.30407341404E+02  0.96657194094E+02  0.91188000000E+02 0.  1.
       -5    1    1    2    0  502  0.16824837650E+01  0.99962324538E+01  0.15723855338E+02  0.18708154414E+02  0.00000000000E+00 0.  1.
<scales pt_clust_3="100000.00000" pt_clust_4="10.13683"></scales>
<rwgt>
<wgt id='bias'>   0.1000000E+01</wgt>
</rwgt>
<clustering>
<clus scale="   10.137">  1  4  2 -1</clus>
<clus scale="   10.137">  1  3  2 -1</clus>
</clustering>
</event>
<event>
 5   3  0.8512900E+003  0.9557948E+02  0.7546771E-02  0.1171710E+00
       21   -1    0    0  501  502  0.00000000000E+00  0.00000000000E+00  0.85356237233E+01  0.85356237233E+01  0.00000000000E+00 0. -1.
        2   -1    0    0  503    0 -0.00000000000E+00 -0.00000000000E+00 -0.11536497774E+04  0.11536497774E+04  0.00000000000E+00 0. -1.
       23    1    1    2    0    0 -0.33583896862E+02 -0.63746201476E+01 -0.10838380813E+04  0.10882043704E+04  0.91188000000E+02 0. -1.
       21    1    1    2  503  502  0.21450914357E+02  0.85407998302E+01 -0.56002601576E+02  0.60575394112E+02  0.00000000000E+00 0.  1.
        2    1    1    2  501    0  0.12132982506E+02 -0.21661796826E+01 -0.52734707929E+01  0.13405636617E+02  0.00000000000E+00 0. -1.
<scales pt_clust_3="100000.00000" pt_clust_4="28.63887" pt_clust_5="12.32484"></scales>
<rwgt>
<wgt id='bias'>   0.1000000E+01</wgt>
</rwgt>
<clustering>
<clus scale="   12.325">  1  5  2 -1</clus>
<clus scale="   28.639">  1  4  2 -1</clus>
<clus scale="   12.325">  1  3  2 -1</clus>
</clustering>
</event>
<event>
 3   1  0.8512900E+003  0.9118800E+02  0.7546771E-02  0.1180022E+00
        2   -1    0    0  501    0  0.00000000000E+00  0.00000000000E+00  0.12919260129E+01  0.12919260129E+01  0.00000000000E+00 0. -1.
       -2   -1    0    0    0  501 -0.00000000000E+00 -0.00000000000E+00 -0.16090804080E+04  0.16090804080E+04  0.00000000000E+00 0.  1.
       23    1    1    2    0    0  0.00000000000E+00  0.00000000000E+00 -0.16077884820E+04  0.16103723340E+04  0.91188000000E+02 0. -1.
<scales pt_clust_3="100000.00000"></scales>
<rwgt>
<wgt id='bias'>   0.1000000E+01</wgt>
</rwgt>
<clustering>
<clus scale="   91.188">  1  3  2 -1</clus>
</clustering>
</event>
<event>
 3   1  0.8512900E+003  0.9118800E+02  0.7546771E-02  0.1180022E+00
        5   -1    0    0  501    0  0.00000000000E+00  0.00000000000E+00  0.44048457765E+00  0.44048457765E+00  0.00000000000E+00 0. -1.
       -5   -1    0    0    0  501 -0.00000000000E+00 -0.00000000000E+00 -0.47193771166E+04  0.47193771166E+04  0.00000000000E+00 0.  1.
       23    1    1    2    0    0  0.00000000000E+00  0.00000000000E+00 -0.47189366320E+04  0.47198176012E+04  0.91188000000E+02 0. -1.
<scales pt_clust_3="100000.00000"></scales>
<rwgt>
<wgt id='bias'>   0.1000000E+01</wgt>
</rwgt>
<clustering>
<clus scale="   91.188">  1  3  2 -1</clus>
</clustering>
</event>
<event>
 3   1  0.8512900E+003  0.9118800E+02  0.7546771E-02  0.1180022E+00
       -1   -1    0    0    0  501 -0.00000000000E+00  0.00000000000E+00  0.23941493454E+02  0.23941493454E+02  0.00000000000E+00 0.  1.
        1   -1    0    0  501    0  0.00000000000E+00 -0.00000000000E+00 -0.86828870553E+02  0.86828870553E+02  0.00000000000E+00 0. -1.
       23    1    1    2    0    0  0.00000000000E+00 -0.00000000000E+00 -0.62887377099E+02  0.11077036401E+03  0.91188000000E+02 0.  1.
<scales pt_clust_3="100000.00000"></scales>
<rwgt>
<wgt id='bias'>   0.1000000E+01</wgt>
</rwgt>
<clustering>
<clus scale="   91.188">  2  3  1 -1</clus>
</clustering>
</event>
<event>
 5   3  0.8512900E+003  0.5306418E+02  0.7546771E-02  0.1154643E+00
       21   -1    0    0  503  502  0.00000000000E+00  0.00000000000E+00  0.17859975588E+04  0.17859975588E+04  0.00000000000E+00 0.  1.
       21   -1    0    0  501  503 -0.00000000000E+00 -0.00000000000E+00 -0.12793663354E+02  0.12793663354E+02  0.00000000000E+00 0. -1.
       23    1    1    2    0    0  0.37149364363E+02  0.46280304075E+02  0.14163683778E+04  0.14205409444E+04  0.91188000000E+02 0.  1.
        1    1    1    2  501    0 -0.42710699110E+02  0.83246582673E+01  0.48884736357E+02  0.65446323063E+02  0.00000000000E+00 0. -1.
       -1    1    1    2    0  502  0.55613347478E+01 -0.54604962342E+02  0.30795078128E+03  0.31280395466E+03  0.00000000000E+00 0.  1.
<scales pt_clust_3="100000.00000" pt_clust_4="43.51441" pt_clust_5="53.06418"></scales>
<rwgt>
<wgt id='bias'>   0.1000000E+01</wgt>
</rwgt>
<clustering>
<clus scale="   43.514">  2  4  1 -1</clus>
<clus scale="   53.064">  1  5  2 -1</clus>
<clus scale="   53.064">  1  3  2 -1</clus>
</clustering>
</event>
<event>
 5   3  0.8512900E+003  0.5203771E+02  0.7546771E-02  0.1155472E+00
       21   -1    0    0  503  502  0.00000000000E+00  0.00000000000E+00  0.21700047785E+04  0.21700047785E+04  0.00000000000E+00 0.  1.
       21   -1    0    0  501  503 -0.00000000000E+00 -0.00000000000E+00 -0.13714966485E+02  0.13714966485E+02  0.00000000000E+00 0. -1.
       23    1    1    2    0    0 -0.60944416201E+02  0.24442248612E+01  0.11449303660E+04  0.11501743305E+04  0.91188000000E+02 0.  0.
        4    1    1    2  501    0  0.49812257465E+02 -0.13630680808E+02  0.49431341052E+02  0.71487858629E+02  0.00000000000E+00 0. -1.
       -4    1    1    2    0  502  0.11132158735E+02  0.11186455947E+02  0.96192810492E+03  0.96205755586E+03  0.00000000000E+00 0.  1.
<scales pt_clust_3="100000.00000" pt_clust_4="52.03771" pt_clust_5="15.78169"></scales>
<rwgt>
<wgt id='bias'>   0.1000000E+01</wgt>
</rwgt>
<clustering>
<clus scale="   15.782">  1  5  2 -1</clus>
<clus scale="   52.038">  2  4  1 -1</clus>
<clus scale="   15.782">  1  3  2 -1</clus>
</clustering>
</event>
<event>
 3   1  0.8512900E+003  0.9118800E+02  0.7546771E-02  0.1180022E+00
       -3   -1    0    0    0  501 -0.00000000000E+00  0.00000000000E+00  0.16294310164E+02  0.16294310164E+02  0.00000000000E+00 0.  1.
        3   -1    0    0  501    0  0.00000000000E+00 -0.00000000000E+00 -0.12757906380E+03  0.12757906380E+03  0.00000000000E+00 0. -1.
       23    1    1    2    0    0  0.00000000000E+00 -0.00000000000E+00 -0.11128475364E+03  0.14387337396E+03  0.91188000000E+02 0.  1.
<scales pt_clust_3="100000.00000"></scales>
<rwgt>
<wgt id='bias'>   0.1000000E+01</wgt>
</rwgt>
<clustering>
<clus scale="   91.188">  2  3  1 -1</clus>
</clustering>
</event>
<event>
 5   3  0.8512900E+003  0.1094287E+03  0.7546771E-02  0.1148461E+00
        4   -1    0    0  503    0 -0.00000000000E+00  0.00000000000E+00  0.32135277156E+02  0.32135277156E+02  0.00000000000E+00 0. -1.
       21   -1    0    0  501  502  0.00000000000E+00 -0.00000000000E+00 -0.91740941916E+03  0.91740941916E+03  0.00000000000E+00 0. -1.
       23    1    1    2    0    0 -0.43695642961E+02 -0.39642566652E+02 -0.83204791315E+02  0.13681787510E+03  0.91188000000E+02 0. -1.
       21    1    1    2  503  502  0.13641452760E+02 -0.19300769343E+02 -0.59228242676E+03  0.59275381229E+03  0.00000000000E+00 0. -1.
        4    1    1    2  501    0  0.30054190200E+02  0.58943335994E+02 -0.20978692393E+03  0.21997300893E+03  0.00000000000E+00 0. -1.
<scales pt_clust_3="100000.00000" pt_clust_4="23.63491" pt_clust_5="60.49282"></scales>
<rwgt>
<wgt id='bias'>   0.1000000E+01</wgt>
</rwgt>
<clustering>
<clus scale="   23.635">  2  4  1 -1</clus>
<clus scale="   60.493">  2  5  1 -1</clus>
<clus scale="   23.635">  2  3  1 -1</clus>
</clustering>
</event>
<event>
 3   1  0.8512900E+003  0.9118800E+02  0.7546771E-02  0.1180022E+00
       -2   -1    0    0    0  501 -0.00000000000E+00  0.00000000000E+00  0.92623991891E+00  0.92623991891E+00  0.00000000000E+00 0.  1.
        2   -1    0    0  501    0  0.00000000000E+00 -0.00000000000E+00 -0.22443567736E+04  0.22443567736E+04  0.00000000000E+00 0. -1.
       23    1    1    2    0    0  0.00000000000E+00 -0.00000000000E+00 -0.22434305337E+04  0.22452830135E+04  0.91188000000E+02 0.  1.
<scales pt_clust_3="100000.00000"></scales>
<rwgt>
<wgt id='bias'>   0.1000000E+01</wgt>
</rwgt>
<clustering>
<clus scale="   91.188">  2  3  1 -1</clus>
</clustering>
</event>
<event>
 3   1  0.8512900E+003  0.9118800E+02  0.7546771E-02  0.1180022E+00
       -4   -1    0    0    0  501 -0.00000000000E+00  0.00000000000E+00  0.10032867108E+04  0.10032867108E+04  0.00000000000E+00 0.  1.
        4   -1    0    0  501    0  0.00000000000E+00 -0.00000000000E+00 -0.20720027620E+01  0.20720027620E+01  0.00000000000E+00 0. -1.
       23    1    1    2    0    0  0.00000000000E+00 -0.00000000000E+00  0.10012147081E+04  0.10053587136E+04  0.91188000000E+02 0.  1.
<scales pt_clust_3="100000.00000"></scales>
<rwgt>
<wgt id='bias'>   0.1000000E+01</wgt>
</rwgt>
<clustering>
<clus scale="   91.188">  2  3  1 -1</clus>
</clustering>
</event>
<event>
 5   3  0.8512900E+003  0.9652021E+02  0.7546771E-02  0.1169994E+00
        2   -1    0    0  501    0  0.00000000000E+00  0.00000000000E+00  0.18379493816E+02  0.18379493816E+02  0.00000000000E+00 0. -1.
       -3   -1    0    0    0  501 -0.00000000000E+00 -0.00000000000E+00 -0.51541346819E+03  0.51541346819E+03  0.00000000000E+00 0. -1.
       23    1    1    2    0    0 -0.88562814671E+01 -0.24792937725E+02 -0.12664754160E+03  0.15826551936E+03  0.91188000000E+02 0.  0.
        2    1    1    2  502    0  0.58014561291E+01  0.36860201128E+02 -0.14259946744E+03  0.14740060867E+03  0.00000000000E+00 0. -1.
       -3    1    1    2    0  502  0.30548253381E+01 -0.12067263402E+02 -0.22778696534E+03  0.22812683398E+03  0.00000000000E+00 0. -1.
<scales pt_clust_3="100000.00000" pt_clust_4="31.63699" pt_clust_5="12.44792"></scales>
<rwgt>
<wgt id='bias'>   0.1000000E+01</wgt>
</rwgt>
<clustering>
<clus scale="   12.448">  2  5  1 -1</clus>
<clus scale="   31.637">  2  4  1 -1</clus>
<clus scale="   96.520">  1  3  2 -1</clus>
</clustering>
</event>
<event>
 3   1  0.8512900E+003  0.9118800E+02  0.7546771E-02  0.1180022E+00
       -2   -1    0    0    0  501 -0.00000000000E+00  0.00000000000E+00  0.13547214374E+02  0.13547214374E+02  0.00000000000E+00 0.  1.
        2   -1    0    0  501    0  0.00000000000E+00 -0.00000000000E+00 -0.15344946781E+03  0.15344946781E+03  0.00000000000E+00 0. -1.
       23    1    1    2    0    0  0.00000000000E+00 -0.00000000000E+00 -0.13990225344E+03  0.16699668219E+03  0.91188000000E+02 0.  1.
<scales pt_clust_3="100000.00000"></scales>
<rwgt>
<wgt id='bias'>   0.1000000E+01</wgt>
</rwgt>
<clustering>
<clus scale="   91.188">  2  3  1 -1</clus>
</clustering>
</event>
<event>
 3   1  0.8512900E+003  0.9118800E+02  0.7546771E-02  0.1180022E+00
        3   -1    0    0  501    0  0.00000000000E+00  0.00000000000E+00  0.28321806020E+02  0.28321806020E+02  0.00000000000E+00 0. -1.
       -3   -1    0    0    0  501 -0.00000000000E+00 -0.00000000000E+00 -0.73399727210E+02  0.73399727210E+02  0.00000000000E+00 0.  1.
       23    1    1    2    0    0  0.00000000000E+00  0.00000000000E+00 -0.45077921190E+02  0.10172153323E+03  0.91188000000E+02 0. -1.
<scales pt_clust_3="100000.00000"></scales>
<rwgt>
<wgt id='bias'>   0.1000000E+01</wgt>
</rwgt>
<clustering>
<clus scale="   91.188">  1  3  2 -1</clus>
</clustering>
</event>
<event>
 5   3  0.8512900E+003  0.1737400E+03  0.7546771E-02  0.1075641E+00
       21   -1    0    0  501  502  0.00000000000E+00  0.00000000000E+00  0.19700689755E+03  0.19700689755E+03  0.00000000000E+00 0.  1.
        1   -1    0    0  503    0 -0.00000000000E+00 -0.00000000000E+00 -0.60701117166E+02  0.60701117166E+02  0.00000000000E+00 0. -1.
       23    1    1    2    0    0 -0.36093690435E+02 -0.84737328877E+01  0.84871389041E+02  0.12997293049E+03  0.91188000000E+02 0.  1.
       21    1    1    2  503  502 -0.17882964507E+02  0.82774210819E+01  0.68378280093E+02  0.71161122165E+02  0.00000000000E+00 0.  1.
        1    1    1    2  501    0  0.53976654942E+02  0.19631180581E+00 -0.16943888753E+02  0.56573962059E+02  0.00000000000E+00 0. -1.
<scales pt_clust_3="100000.00000" pt_clust_4="19.70574" pt_clust_5="100000.00000"></scales>
<rwgt>
<wgt id='bias'>   0.1000000E+01</wgt>
</rwgt>
<clustering>
<clus scale="   19.706">  1  4  2 -1</clus>
<clus scale="   51.213">  3  5 -1 -1</clus>
<clus scale="   19.706">  1  3  2 -1</clus>
</clustering>
</event>
<event>
 4   2  0.8512900E+003  0.9281861E+02  0.7546771E-02  0.1176875E+00
        1   -1    0    0  502    0 -0.00000000000E+00  0.00000000000E+00  0.27243836480E+01  0.27243836480E+01  0.00000000000E+00 0. -1.
       21   -1    0    0  501  502  0.00000000000E+00 -0.00000000000E+00 -0.14984719422E+04  0.14984719422E+04  0.00000000000E+00 0.  1.
       23    1    1    2    0    0  0.16868505519E+02  0.39366091503E+01 -0.82161778724E+03  0.82684405000E+03  0.91188000000E+02 0.  0.
        1    1    1    2  501    0 -0.16868505519E+02 -0.39366091503E+01 -0.67412977132E+03  0.67435227586E+03  0.00000000000E+00 0. -1.
<scales pt_clust_3="100000.00000" pt_clust_4="17.32176"></scales>
<rwgt>
<wgt id='bias'>   0.1000000E+01</wgt>
</rwgt>
<clustering>
<clus scale="   17.322">  2  4  1 -1</clus>
<clus scale="   17.322">  2  3  1 -1</clus>
</clustering>
</event>
<event>
 5   3  0.8512900E+003  0.1400609E+03  0.7546771E-02  0.1108379E+00
       -1   -1    0    0    0  501 -0.00000000000E+00  0.00000000000E+00  0.10393008013E+02  0.10393008013E+02  0.00000000000E+00 0.  1.
       21   -1    0    0  503  502  0.00000000000E+00 -0.00000000000E+00 -0.10873674840E+04  0.10873674840E+04  0.00000000000E+00 0. -1.
       23    1    1    2    0    0 -0.20507905740E+02  0.13074390483E+02 -0.32580294012E+03  0.33919658167E+03  0.91188000000E+02 0.  0.
       21    1    1    2  503  501 -0.23760946485E+02 -0.20687185806E+01 -0.60432281024E+03  0.60479328795E+03  0.00000000000E+00 0. -1.
       -1    1    1    2    0  502  0.44268852225E+02 -0.11005671903E+02 -0.14684872561E+03  0.15377062237E+03  0.00000000000E+00 0.  1.
<scales pt_clust_3="100000.00000" pt_clust_4="23.85083" pt_clust_5="100000.00000"></scales>
<rwgt>
<wgt id='bias'>   0.1000000E+01</wgt>
</rwgt>
<clustering>
<clus scale="   23.851">  2  4  1 -1</clus>
<clus scale="   38.668">  3  5 -1 -1</clus>
<clus scale="   23.851">  2  3  1 -1</clus>
</clustering>
</event>
<event>
 3   1  0.8512900E+003  0.9118800E+02  0.7546771E-02  0.1180022E+00
        4   -1    0    0  501    0  0.00000000000E+00  0.00000000000E+00  0.69161217577E+03  0.69161217577E+03  0.00000000000E+00 0. -1.
       -4   -1    0    0    0  501 -0.00000000000E+00 -0.00000000000E+00 -0.30057493330E+01  0.30057493330E+01  0.00000000000E+00 0.  1.
       23    1    1    2    0    0  0.00000000000E+00  0.00000000000E+00  0.68860642644E+03  0.69461792511E+03  0.91188000000E+02 0. -1.
<scales pt_clust_3="100000.00000"></scales>
<rwgt>
<wgt id='bias'>   0.1000000E+01</wgt>
</rwgt>
<clustering>
<clus scale="   91.188">  1  3  2 -1</clus>
</clustering>
</event>
<event>
 3   1  0.8512900E+003  0.9118800E+02  0.7546771E-02  0.1180022E+00
       -1   -1    0    0    0  501 -0.00000000000E+00  0.00000000000E+00  0.15792723994E+01  0.15792723994E+01  0.00000000000E+00 0.  1.
        1   -1    0    0  501    0  0.00000000000E+00 -0.00000000000E+00 -0.13163104964E+04  0.13163104964E+04  0.00000000000E+00 0. -1.
       23    1    1    2    0    0  0.00000000000E+00 -0.00000000000E+00 -0.13147312240E+04  0.13178897688E+04  0.91188000000E+02 0.  1.
<scales pt_clust_3="100000.00000"></scales>
<rwgt>
<wgt id='bias'>   0.1000000E+01</wgt>
</rwgt>
<clustering>
<clus scale="   91.188">  2  3  1 -1</clus>
</clustering>
</event>
<event>
 5   3  0.8512900E+003  0.4749294E+03  0.7546771E-02  0.9456887E-01
        2   -1    0    0  503    0 -0.00000000000E+00  0.00000000000E+00  0.16294194445E+05  0.16294194445E+05  0.00000000000E+00 0.  1.
       21   -1    0    0  501  502  0.00000000000E+00 -0.00000000000E+00 -0.36652226255E+01  0.36652226255E+01  0.00000000000E+00 0.  1.
       23    1    1    2    0    0  0.86658077534E+02  0.14723242726E+02  0.15397027024E+05  0.15397547949E+05  0.91188000000E+02 0.  1.
       21    1    1    2  503  502 -0.13414690378E+02  0.33676448676E+01  0.46587996418E+03  0.46608522394E+03  0.00000000000E+00 0.  1.
        2    1    1    2  501    0 -0.73243387155E+02 -0.18090887594E+02  0.42762223456E+03  0.43422649558E+03  0.00000000000E+00 0.  1.
<scales pt_clust_3="100000.00000" pt_clust_4="13.83094" pt_clust_5="100000.00000"></scales>
<rwgt>
<wgt id='bias'>   0.1000000E+01</wgt>
</rwgt>
<clustering>
<clus scale="   13.831">  1  4  2 -1</clus>
<clus scale="   75.777">  3  5 -1 -1</clus>
<clus scale="  474.929">  2  3  1 -1</clus>
</clustering>
</event>
<event>
 4   2  0.8512900E+003  0.9335660E+02  0.7546771E-02  0.1175853E+00
       -1   -1    0    0    0  501 -0.00000000000E+00  0.00000000000E+00  0.11252974579E+02  0.11252974579E+02  0.00000000000E+00 0.  1.
        1   -1    0    0  502    0  0.00000000000E+00 -0.00000000000E+00 -0.28559991720E+03  0.28559991720E+03  0.00000000000E+00 0. -1.
       23    1    1    2    0    0 -0.18531642956E+02  0.75353718568E+01 -0.22802395821E+03  0.24639476553E+03  0.91188000000E+02 0. -1.
       21    1    1    2  502  501  0.18531642956E+02 -0.75353718568E+01 -0.46322984417E+02  0.50458126253E+02  0.00000000000E+00 0. -1.
<scales pt_clust_3="100000.00000" pt_clust_4="20.00509"></scales>
<rwgt>
<wgt id='bias'>   0.1000000E+01</wgt>
</rwgt>
<clustering>
<clus scale="   20.005">  1  4  2 -1</clus>
<clus scale="   93.357">  2  3  1 -1</clus>
</clustering>
</event>
<event>
 3   1  0.8512900E+003  0.9118800E+02  0.7546771E-02  0.1180022E+00
        1   -1    0    0  501    0  0.00000000000E+00  0.00000000000E+00  0.21217762105E+05  0.21217762105E+05  0.00000000000E+00 0. -1.
       -1   -1    0    0    0  501 -0.00000000000E+00 -0.00000000000E+00 -0.97975122246E-01  0.97975122246E-01  0.00000000000E+00 0.  1.
       23    1    1    2    0    0  0.00000000000E+00  0.00000000000E+00  0.21217664130E+05  0.21217860080E+05  0.91188000000E+02 0. -1.
<scales pt_clust_3="100000.00000"></scales>
<rwgt>
<wgt id='bias'>   0.1000000E+01</wgt>
</rwgt>
<clustering>
<clus scale="   91.188">  1  3  2 -1</clus>
</clustering>
</event>
<event>
 3   1  0.8512900E+003  0.9118800E+02  0.7546771E-02  0.1180022E+00
        2   -1    0    0  501    0  0.00000000000E+00  0.00000000000E+00  0.52433571583E+01  0.52433571583E+01  0.00000000000E+00 0.  1.
       -2   -1    0    0    0  501 -0.00000000000E+00 -0.00000000000E+00 -0.39646599940E+03  0.39646599940E+03  0.00000000000E+00 0. -1.
       23    1    1    2    0    0  0.00000000000E+00  0.00000000000E+00 -0.39122264225E+03  0.40170935656E+03  0.91188000000E+02 0.  1.
<scales pt_clust_3="100000.00000"></scales>
<rwgt>
<wgt id='bias'>   0.1000000E+01</wgt>
</rwgt>
<clustering>
<clus scale="   91.188">  1  3  2 -1</clus>
</clustering>
</event>
<event>
 3   1  0.8512900E+003  0.9118800E+02  0.7546771E-02  0.1180022E+00
       -2   -1    0    0    0  501 -0.00000000000E+00  0.00000000000E+00  0.17119505556E+03  0.17119505556E+03  0.00000000000E+00 0.  1.
        2   -1    0    0  501    0  0.00000000000E+00 -0.00000000000E+00 -0.12142949043E+02  0.12142949043E+02  0.00000000000E+00 0. -1.
       23    1    1    2    0    0  0.00000000000E+00 -0.00000000000E+00  0.15905210652E+03  0.18333800460E+03  0.91188000000E+02 0.  1.
<scales pt_clust_3="100000.00000"></scales>
<rwgt>
<wgt id='bias'>   0.1000000E+01</wgt>
</rwgt>
<clustering>
<clus scale="   91.188">  2  3  1 -1</clus>
</clustering>
</event>
<event>
 3   1  0.8512900E+003  0.9118800E+02  0.7546771E-02  0.1180022E+00
       -4   -1    0    0    0  501 -0.00000000000E+00  0.00000000000E+00  0.29637255738E+02  0.29637255738E+02  0.00000000000E+00 0.  1.
        4   -1    0    0  501    0  0.00000000000E+00 -0.00000000000E+00 -0.70141880016E+02  0.70141880016E+02  0.00000000000E+00 0. -1.
       23    1    1    2    0    0  0.00000000000E+00 -0.00000000000E+00 -0.40504624277E+02  0.99779135754E+02  0.91188000000E+02 0.  1.
<scales pt_clust_3="100000.00000"></scales>
<rwgt>
<wgt id='bias'>   0.1000000E+01</wgt>
</rwgt>
<clustering>
<clus scale="   91.188">  2  3  1 -1</clus>
</clustering>
</event>
<event>
 4   2  0.8512900E+003  0.1059987E+03  0.7546771E-02  0.1153847E+00
       21   -1    0    0  501  502  0.00000000000E+00  0.00000000000E+00  0.11391306539E+01  0.11391306539E+01  0.00000000000E+00 0.  1.
        1   -1    0    0  502    0 -0.00000000000E+00 -0.00000000000E+00 -0.63642108211E+04  0.63642108211E+04  0.00000000000E+00 0. -1.
       23    1    1    2    0    0  0.11455896991E+02 -0.52813159493E+02 -0.51294934106E+04  0.51305885011E+04  0.91188000000E+02 0. -1.
        1    1    1    2  501    0 -0.11455896991E+02  0.52813159493E+02 -0.12335782798E+04  0.12347614506E+04  0.00000000000E+00 0. -1.
<scales pt_clust_3="100000.00000" pt_clust_4="54.04135"></scales>
<rwgt>
<wgt id='bias'>   0.1000000E+01</wgt>
</rwgt>
<clustering>
<clus scale="   54.041">  1  4  2 -1</clus>
<clus scale="   54.041">  1  3  2 -1</clus>
</clustering>
</event>
<event>
 3   1  0.8512900E+003  0.9118800E+02  0.7546771E-02  0.1180022E+00
       -1   -1    0    0    0  501 -0.00000000000E+00  0.00000000000E+00  0.61357396967E+03  0.61357396967E+03  0.00000000000E+00 0.  1.
        1   -1    0    0  501    0  0.00000000000E+00 -0.00000000000E+00 -0.33880394847E+01  0.33880394847E+01  0.00000000000E+00 0. -1.
       23    1    1    2    0    0  0.00000000000E+00 -0.00000000000E+00  0.61018593018E+03  0.61696200915E+03  0.91188000000E+02 0.  1.
<scales pt_clust_3="100000.00000"></scales>
<rwgt>
<wgt id='bias'>   0.1000000E+01</wgt>
</rwgt>
<clustering>
<clus scale="   91.188">  2  3  1 -1</clus>
</clustering>
</event>
<event>
 3   1  0.8512900E+003  0.9118800E+02  0.7546771E-02  0.1180022E+00
        2   -1    0    0  501    0  0.00000000000E+00  0.00000000000E+00  0.13189929667E+02  0.13189929667E+02  0.00000000000E+00 0. -1.
       -2   -1    0    0    0  501 -0.00000000000E+00 -0.00000000000E+00 -0.15760605921E+03  0.15760605921E+03  0.00000000000E+00 0.  1.
       23    1    1    2    0    0  0.00000000000E+00  0.00000000000E+00 -0.14441612954E+03  0.17079598887E+03  0.91188000000E+02 0. -1.
<scales pt_clust_3="100000.00000"></scales>
<rwgt>
<wgt id='bias'>   0.1000000E+01</wgt>
</rwgt>
<clustering>
<clus scale="   91.188">  1  3  2 -1</clus>
</clustering>
</event>
<event>
 3   1  0.8512900E+003  0.9118800E+02  0.7546771E-02  0.1180022E+00
       -5   -1    0    0    0  501 -0.00000000000E+00  0.00000000000E+00  0.49571218740E+01  0.49571218740E+01  0.00000000000E+00 0.  1.
        5   -1    0    0  501    0  0.00000000000E+00 -0.00000000000E+00 -0.41935883136E+03  0.41935883136E+03  0.00000000000E+00 0. -1.
       23    1    1    2    0    0  0.00000000000E+00 -0.00000000000E+00 -0.41440170949E+03  0.42431595323E+03  0.91188000000E+02 0.  1.
<scales pt_clust_3="100000.00000"></scales>
<rwgt>
<wgt id='bias'>   0.1000000E+01</wgt>
</rwgt>
<clustering>
<clus scale="   91.188">  2  3  1 -1</clus>
</clustering>
</event>
<event>
 5   3  0.8512900E+003  0.2852819E+03  0.7546771E-02  0.1007305E+00
       21   -1    0    0  501  502  0.00000000000E+00  0.00000000000E+00  0.33306716551E+02  0.33306716551E+02  0.00000000000E+00 0. -1.
       -2   -1    0    0    0  501 -0.00000000000E+00 -0.00000000000E+00 -0.61088102634E+03  0.61088102634E+03  0.00000000000E+00 0.  1.
       23    1    1    2    0    0 -0.12140388040E+03 -0.30489996834E+02 -0.35035460230E+03  0.38305631541E+03  0.91188000000E+02 0.  0.
       21    1    1    2  503  502  0.16560507526E+02  0.33409206271E+01 -0.13835242712E+02  0.21836348162E+02  0.00000000000E+00 0.  1.
       -2    1    1    2    0  503  0.10484337288E+03  0.27149076207E+02 -0.21338446477E+03  0.23929507931E+03  0.00000000000E+00 0.  1.
<scales pt_clust_3="100000.00000" pt_clust_4="11.79785" pt_clust_5="100000.00000"></scales>
<rwgt>
<wgt id='bias'>   0.1000000E+01</wgt>
</rwgt>
<clustering>
<clus scale="   11.798">  4  5 -1 -1</clus>
<clus scale="  128.689">  3  4 -1 -1</clus>
<clus scale="  285.282">  1  3  2 -1</clus>
</clustering>
</event>
<event>
 4   2  0.8512900E+003  0.9182723E+02  0.7546771E-02  0.1178780E+00
       -1   -1    0    0    0  501 -0.00000000000E+00  0.00000000000E+00  0.24966723927E+00  0.24966723927E+00  0.00000000000E+00 0.  1.
        1   -1    0    0  502    0  0.00000000000E+00 -0.00000000000E+00 -0.17323161397E+05  0.17323161397E+05  0.00000000000E+00 0. -1.
       23    1    1    2    0    0  0.14108848128E+01  0.10723709518E+02 -0.85576040344E+04  0.85580966955E+04  0.91188000000E+02 0.  1.
       21    1    1    2  502  501 -0.14108848128E+01 -0.10723709518E+02 -0.87653076953E+04  0.87653143687E+04  0.00000000000E+00 0.  1.
<scales pt_clust_3="100000.00000" pt_clust_4="10.81612"></scales>
<rwgt>
<wgt id='bias'>   0.1000000E+01</wgt>
</rwgt>
<clustering>
<clus scale="   10.816">  2  4  1 -1</clus>
<clus scale="   10.816">  2  3  1 -1</clus>
</clustering>
</event>
<event>
 5   3  0.8512900E+003  0.2387060E+03  0.7546771E-02  0.1030822E+00
        4   -1    0    0  501    0  0.00000000000E+00  0.00000000000E+00  0.30723070681E+03  0.30723070681E+03  0.00000000000E+00 0. -1.
       -3   -1    0    0    0  501 -0.00000000000E+00 -0.00000000000E+00 -0.16542732320E+03  0.16542732320E+03  0.00000000000E+00 0. -1.
       23    1    1    2    0    0  0.58296069293E+02  0.12235470159E+03  0.23247813022E+03  0.28413102096E+03  0.91188000000E+02 0. -1.
        4    1    1    2  502    0  0.15645201689E+02  0.11726034375E+01 -0.26739382939E+02  0.31002289185E+02  0.00000000000E+00 0. -1.
       -3    1    1    2    0  502 -0.73941270982E+02 -0.12352730503E+03 -0.63935363669E+02  0.15752471987E+03  0.00000000000E+00 0. -1.
<scales pt_clust_3="100000.00000" pt_clust_4="100000.00000" pt_clust_5="143.96634"></scales>
<rwgt>
<wgt id='bias'>   0.1000000E+01</wgt>
</rwgt>
<clustering>
<clus scale="   15.689">  3  4 -1 -1</clus>
<clus scale="  143.966">  2  5  1 -1</clus>
<clus scale="  238.706">  1  3  2 -1</clus>
</clustering>
</event>
<event>
 5   3  0.8512900E+003  0.1071814E+03  0.7546771E-02  0.1151965E+00
        1   -1    0    0  501    0  0.00000000000E+00  0.00000000000E+00  0.65358813104E+01  0.65358813104E+01  0.00000000000E+00 0. -1.
       -1   -1    0    0    0  501 -0.00000000000E+00 -0.00000000000E+00 -0.29458102634E+04  0.29458102634E+04  0.00000000000E+00 0.  1.
       23    1    1    2    0    0  0.17856083653E+01 -0.12251163366E+01 -0.32975778128E+03  0.34214051933E+03  0.91188000000E+02 0. -1.
        1    1    1    2  502    0 -0.44348443707E+01  0.10937945815E+02 -0.10381231743E+03  0.10448111673E+03  0.00000000000E+00 0. -1.
       -1    1    1    2    0  502  0.26492360053E+01 -0.97128294789E+01 -0.25057042834E+04  0.25057245087E+04  0.00000000000E+00 0.  1.
<scales pt_clust_3="100000.00000" pt_clust_4="100000.00000" pt_clust_5="10.06765"></scales>
<rwgt>
<wgt id='bias'>   0.1000000E+01</wgt>
</rwgt>
<clustering>
<clus scale="   10.068">  2  5  1 -1</clus>
<clus scale="    9.441">  3  4 -1 -1</clus>
<clus scale="  107.181">  1  3  2 -1</clus>
</clustering>
</event>
<event>
 4   2  0.8512900E+003  0.3320925E+03  0.7546771E-02  0.9880947E-01
       -3   -1    0    0    0  501 -0.00000000000E+00  0.00000000000E+00  0.35344494752E+02  0.35344494752E+02  0.00000000000E+00 0.  1.
       21   -1    0    0  501  502  0.00000000000E+00 -0.00000000000E+00 -0.78007484877E+03  0.78007484877E+03  0.00000000000E+00 0.  1.
       23    1    1    2    0    0 -0.73162759380E+02  0.51644315604E+02 -0.70663321460E+03  0.71809865340E+03  0.91188000000E+02 0.  1.
       -3    1    1    2    0  502  0.73162759380E+02 -0.51644315604E+02 -0.38097139420E+02  0.97320690124E+02  0.00000000000E+00 0.  1.
<scales pt_clust_3="100000.00000" pt_clust_4="100000.00000"></scales>
<rwgt>
<wgt id='bias'>   0.1000000E+01</wgt>
</rwgt>
<clustering>
<clus scale="   89.554">  3  4 -1 -1</clus>
<clus scale="  332.092">  2  3  1 -1</clus>
</clustering>
</event>
<event>
 4   2  0.8512900E+003  0.9580212E+02  0.7546771E-02  0.1171302E+00
       21   -1    0    0  501  502  0.00000000000E+00  0.00000000000E+00  0.18124776424E+04  0.18124776424E+04  0.00000000000E+00 0.  1.
       -4   -1    0    0    0  501 -0.00000000000E+00 -0.00000000000E+00 -0.33940045828E+01  0.33940045828E+01  0.00000000000E+00 0.  1.
       23    1    1    2    0    0  0.48794978204E+01  0.28965237009E+02  0.71451581190E+03  0.72090976637E+03  0.91188000000E+02 0.  1.
       -4    1    1    2    0  502 -0.48794978204E+01 -0.28965237009E+02  0.10945678260E+04  0.10949618807E+04  0.00000000000E+00 0.  1.
<scales pt_clust_3="100000.00000" pt_clust_4="29.37336"></scales>
<rwgt>
<wgt id='bias'>   0.1000000E+01</wgt>
</rwgt>
<clustering>
<clus scale="   29.373">  1  4  2 -1</clus>
<clus scale="   29.373">  1  3  2 -1</clus>
</clustering>
</event>
<event>
 5   3  0.8512900E+003  0.1232650E+03  0.7546771E-02  0.1128758E+00
        5   -1    0    0  502    0 -0.00000000000E+00  0.00000000000E+00  0.12993692468E+04  0.12993692468E+04  0.00000000000E+00 0. -1.
       21   -1    0    0  503  502  0.00000000000E+00 -0.00000000000E+00 -0.18351417404E+03  0.18351417404E+03  0.00000000000E+00 0.  1.
       23    1    1    2    0    0  0.13504765963E+00  0.22341721724E+01  0.96930123797E+03  0.97358366412E+03  0.91188000000E+02 0. -1.
       21    1    1    2  503  501  0.17649600390E+02 -0.28868736886E+02 -0.17900222447E+03  0.18217219527E+03  0.00000000000E+00 0.  1.
        5    1    1    2  501    0 -0.17784648050E+02  0.26634564714E+02  0.32555605928E+03  0.32712756148E+03  0.00000000000E+00 0. -1.
<scales pt_clust_3="100000.00000" pt_clust_4="33.83655" pt_clust_5="100000.00000"></scales>
<rwgt>
<wgt id='bias'>   0.1000000E+01</wgt>
</rwgt>
<clustering>
<clus scale="   32.026">  3  5 -1 -1</clus>
<clus scale="   33.837">  2  4  1 -1</clus>
<clus scale="   33.837">  2  3  1 -1</clus>
</clustering>
</event>
<event>
 3   1  0.8512900E+003  0.9118800E+02  0.7546771E-02  0.1180022E+00
       -3   -1    0    0    0  501 -0.00000000000E+00  0.00000000000E+00  0.14317413591E+03  0.14317413591E+03  0.00000000000E+00 0.  1.
        3   -1    0    0  501    0  0.00000000000E+00 -0.00000000000E+00 -0.14519471850E+02  0.14519471850E+02  0.00000000000E+00 0. -1.
       23    1    1    2    0    0  0.00000000000E+00 -0.00000000000E+00  0.12865466406E+03  0.15769360776E+03  0.91188000000E+02 0.  1.
<scales pt_clust_3="100000.00000"></scales>
<rwgt>
<wgt id='bias'>   0.1000000E+01</wgt>
</rwgt>
<clustering>
<clus scale="   91.188">  2  3  1 -1</clus>
</clustering>
</event>
<event>
 4   2  0.8512900E+003  0.9202084E+02  0.7546771E-02  0.1178406E+00
       -2   -1    0    0    0  501 -0.00000000000E+00  0.00000000000E+00  0.82368994541E+02  0.82368994541E+02  0.00000000000E+00 0.  1.
       21   -1    0    0  501  502  0.00000000000E+00 -0.00000000000E+00 -0.33137484917E+02  0.33137484917E+02  0.00000000000E+00 0. -1.
       23    1    1    2    0    0  0.11792124026E+02  0.36783177108E+01  0.41603620972E+02  0.10098859754E+03  0.91188000000E+02 0.  1.
       -2    1    1    2    0  502 -0.11792124026E+02 -0.36783177108E+01  0.76278886527E+01  0.14517881923E+02  0.00000000000E+00 0.  1.
<scales pt_clust_3="100000.00000" pt_clust_4="12.35250"></scales>
<rwgt>
<wgt id='bias'>   0.1000000E+01</wgt>
</rwgt>
<clustering>
<clus scale="   12.353">  2  4  1 -1</clus>
<clus scale="   12.353">  2  3  1 -1</clus>
</clustering>
</event>
<event>
 4   2  0.8512900E+003  0.9213452E+02  0.7546771E-02  0.1178187E+00
       21   -1    0    0  501  502  0.00000000000E+00  0.00000000000E+00  0.40873114700E+03  0.40873114700E+03  0.00000000000E+00 0. -1.
        3   -1    0    0  502    0 -0.00000000000E+00 -0.00000000000E+00 -0.68250375824E+01  0.68250375824E+01  0.00000000000E+00 0. -1.
       23    1    1    2    0    0  0.12356444715E+02  0.45647066024E+01  0.36154260018E+03  0.37309760299E+03  0.91188000000E+02 0. -1.
        3    1    1    2  501    0 -0.12356444715E+02 -0.45647066024E+01  0.40363509240E+02  0.42458581589E+02  0.00000000000E+00 0. -1.
<scales pt_clust_3="100000.00000" pt_clust_4="13.17264"></scales>
<rwgt>
<wgt id='bias'>   0.1000000E+01</wgt>
</rwgt>
<clustering>
<clus scale="   13.173">  1  4  2 -1</clus>
<clus scale="   13.173">  1  3  2 -1</clus>
</clustering>
</event>
<event>
 4   2  0.8512900E+003  0.9614021E+02  0.7546771E-02  0.1170684E+00
       21   -1    0    0  501  502  0.00000000000E+00  0.00000000000E+00  0.36300729918E+02  0.36300729918E+02  0.00000000000E+00 0.  1.
       -3   -1    0    0    0  501 -0.00000000000E+00 -0.00000000000E+00 -0.13519177660E+03  0.13519177660E+03  0.00000000000E+00 0.  1.
       23    1    1    2    0    0 -0.52882971369E+01 -0.29995380537E+02 -0.37941162111E+02  0.10335604514E+03  0.91188000000E+02 0.  1.
       -3    1    1    2    0  502  0.52882971369E+01  0.29995380537E+02 -0.60949884572E+02  0.68136461381E+02  0.00000000000E+00 0.  1.
<scales pt_clust_3="100000.00000" pt_clust_4="30.45800"></scales>
<rwgt>
<wgt id='bias'>   0.1000000E+01</wgt>
</rwgt>
<clustering>
<clus scale="   30.458">  1  4  2 -1</clus>
<clus scale="   30.458">  1  3  2 -1</clus>
</clustering>
</event>
<event>
 5   3  0.8512900E+003  0.1601275E+02  0.7546771E-02  0.1177325E+00
       21   -1    0    0  503  502  0.00000000000E+00  0.00000000000E+00  0.22117738349E+04  0.22117738349E+04  0.00000000000E+00 0. -1.
       -4   -1    0    0    0  501 -0.00000000000E+00 -0.00000000000E+00 -0.69847196417E+01  0.69847196417E+01  0.00000000000E+00 0.  1.
       23    1    1    2    0    0 -0.19315661346E+02  0.11277332635E+02  0.41503224599E+03  0.42552002251E+03  0.91188000000E+02 0.  1.
       21    1    1    2  503  501  0.12155204150E+02  0.30240240872E+01  0.21304720127E+02  0.24714060963E+02  0.00000000000E+00 0.  1.
       -4    1    1    2    0  502  0.71604571954E+01 -0.14301356722E+02  0.17684521491E+04  0.17685244711E+04  0.00000000000E+00 0.  1.
<scales pt_clust_3="100000.00000" pt_clust_4="12.52572" pt_clust_5="16.01275"></scales>
<rwgt>
<wgt id='bias'>   0.1000000E+01</wgt>
</rwgt>
<clustering>
<clus scale="   12.526">  2  4  1 -1</clus>
<clus scale="   16.013">  1  5  2 -1</clus>
<clus scale="   16.013">  1  3  2 -1</clus>
</clustering>
</event>
<event>
 3   1  0.8512900E+003  0.9118800E+02  0.7546771E-02  0.1180022E+00
        5   -1    0    0  501    0  0.00000000000E+00  0.00000000000E+00  0.90782894361E+02  0.90782894361E+02  0.00000000000E+00 0. -1.
       -5   -1    0    0    0  501 -0.00000000000E+00 -0.00000000000E+00 -0.22898728341E+02  0.22898728341E+02  0.00000000000E+00 0.  1.
       23    1    1    2    0    0  0.00000000000E+00  0.00000000000E+00  0.67884166020E+02  0.11368162270E+03  0.91188000000E+02 0. -1.
<scales pt_clust_3="100000.00000"></scales>
<rwgt>
<wgt id='bias'>   0.1000000E+01</wgt>
</rwgt>
<clustering>
<clus scale="   91.188">  1  3  2 -1</clus>
</clustering>
</event>
<event>
 3   1  0.8512900E+003  0.9118800E+02  0.7546771E-02  0.1180022E+00
       -4   -1    0    0    0  501 -0.00000000000E+00  0.00000000000E+00  0.19229486775E+04  0.19229486775E+04  0.00000000000E+00 0. -1.
        4   -1    0    0  501    0  0.00000000000E+00 -0.00000000000E+00 -0.10810547678E+01  0.10810547678E+01  0.00000000000E+00 0.  1.
       23    1    1    2    0    0  0.00000000000E+00 -0.00000000000E+00  0.19218676227E+04  0.19240297323E+04  0.91188000000E+02 0. -1.
<scales pt_clust_3="100000.00000"></scales>
<rwgt>
<wgt id='bias'>   0.1000000E+01</wgt>
</rwgt>
<clustering>
<clus scale="   91.188">  2  3  1 -1</clus>
</clustering>
</event>
<event>
 4   2  0.8512900E+003  0.9619782E+02  0.7546771E-02  0.1170580E+00
        5   -1    0    0  502    0 -0.00000000000E+00  0.00000000000E+00  0.17245934709E+04  0.17245934709E+04  0.00000000000E+00 0. -1.
       21   -1    0    0  501  502  0.00000000000E+00 -0.00000000000E+00 -0.29672690029E+01  0.29672690029E+01  0.00000000000E+00 0.  1.
       23    1    1    2    0    0  0.29884049997E+02 -0.67610555800E+01  0.15657178468E+04  0.15686702635E+04  0.91188000000E+02 0. -1.
        5    1    1    2  501    0 -0.29884049997E+02  0.67610555800E+01  0.15590835511E+03  0.15889047646E+03  0.00000000000E+00 0. -1.
<scales pt_clust_3="100000.00000" pt_clust_4="30.63933"></scales>
<rwgt>
<wgt id='bias'>   0.1000000E+01</wgt>
</rwgt>
<clustering>
<clus scale="   30.639">  2  4  1 -1</clus>
<clus scale="   30.639">  2  3  1 -1</clus>
</clustering>
</event>
<event>
 5   3  0.8512900E+003  0.9251894E+02  0.7546771E-02  0.1177448E+00
       -5   -1    0    0    0  501 -0.00000000000E+00  0.00000000000E+00  0.46318554806E+02  0.46318554806E+02  0.00000000000E+00 0.  1.
       21   -1    0    0  503  502  0.00000000000E+00 -0.00000000000E+00 -0.27868247966E+03  0.27868247966E+03  0.00000000000E+00 0. -1.
       23    1    1    2    0    0  0.24412529207E+01 -0.12636157771E+02 -0.54375884960E+01  0.92252105188E+02  0.91188000000E+02 0.  1.
       21    1    1    2  503  501 -0.14823163424E+02 -0.34405603213E+01 -0.19004891775E+03  0.19065716553E+03  0.00000000000E+00 0. -1.
       -5    1    1    2    0  502  0.12381910503E+02  0.16076718093E+02 -0.36877418607E+02  0.42091763748E+02  0.00000000000E+00 0.  1.
<scales pt_clust_3="100000.00000" pt_clust_4="15.21721" pt_clust_5="15.63660"></scales>
<rwgt>
<wgt id='bias'>   0.1000000E+01</wgt>
</rwgt>
<clustering>
<clus scale="   15.217">  2  4  1 -1</clus>
<clus scale="   15.637">  2  5  1 -1</clus>
<clus scale="   15.217">  2  3  1 -1</clus>
</clustering>
</event>
<event>
 5   3  0.8512900E+003  0.9433862E+02  0.7546771E-02  0.1174007E+00
        4   -1    0    0  501    0 -0.00000000000E+00  0.00000000000E+00  0.27000944290E+01  0.27000944290E+01  0.00000000000E+00 0. -1.
        2   -1    0    0  502    0  0.00000000000E+00 -0.00000000000E+00 -0.84821207652E+04  0.84821207652E+04  0.00000000000E+00 0.  1.
       23    1    1    2    0    0 -0.19529568714E+02  0.11323570243E+00 -0.92733769379E+03  0.93201494974E+03  0.91188000000E+02 0. -1.
        2    1    1    2  501    0 -0.61923897597E+01 -0.89847009730E+01 -0.70343480141E+04  0.70343564776E+04  0.00000000000E+00 0.  1.
        4    1    1    2  502    0  0.25721958474E+02  0.88714652706E+01 -0.51773496292E+03  0.51844943232E+03  0.00000000000E+00 0. -1.
<scales pt_clust_3="100000.00000" pt_clust_4="10.91194" pt_clust_5="24.17693"></scales>
<rwgt>
<wgt id='bias'>   0.1000000E+01</wgt>
</rwgt>
<clustering>
<clus scale="   10.912">  2  4  1 -1</clus>
<clus scale="   24.177">  2  5  1 -1</clus>
<clus scale="   10.912">  2  3  1 -1</clus>
</clustering>
</event>
<event>
 3   1  0.8512900E+003  0.9118800E+02  0.7546771E-02  0.1180022E+00
       -2   -1    0    0    0  501 -0.00000000000E+00  0.00000000000E+00  0.18356874207E+00  0.18356874207E+00  0.00000000000E+00 0. -1.
        2   -1    0    0  501    0  0.00000000000E+00 -0.00000000000E+00 -0.11324437988E+05  0.11324437988E+05  0.00000000000E+00 0.  1.
       23    1    1    2    0    0  0.00000000000E+00 -0.00000000000E+00 -0.11324254419E+05  0.11324621556E+05  0.91188000000E+02 0. -1.
<scales pt_clust_3="100000.00000"></scales>
<rwgt>
<wgt id='bias'>   0.1000000E+01</wgt>
</rwgt>
<clustering>
<clus scale="   91.188">  2  3  1 -1</clus>
</clustering>
</event>
<event>
 3   1  0.8512900E+003  0.9118800E+02  0.7546771E-02  0.1180022E+00
        4   -1    0    0  501    0  0.00000000000E+00  0.00000000000E+00  0.43845791115E+03  0.43845791115E+03  0.00000000000E+00 0. -1.
       -4   -1    0    0    0  501 -0.00000000000E+00 -0.00000000000E+00 -0.47411913051E+01  0.47411913051E+01  0.00000000000E+00 0.  1.
       23    1    1    2    0    0  0.00000000000E+00  0.00000000000E+00  0.43371671985E+03  0.44319910246E+03  0.91188000000E+02 0. -1.
<scales pt_clust_3="100000.00000"></scales>
<rwgt>
<wgt id='bias'>   0.1000000E+01</wgt>
</rwgt>
<clustering>
<clus scale="   91.188">  1  3  2 -1</clus>
</clustering>
</event>
<event>
 3   1  0.8512900E+003  0.9118800E+02  0.7546771E-02  0.1180022E+00
       -1   -1    0    0    0  501 -0.00000000000E+00  0.00000000000E+00  0.41763231067E+04  0.41763231067E+04  0.00000000000E+00 0.  1.
        1   -1    0    0  501    0  0.00000000000E+00 -0.00000000000E+00 -0.49776149567E+00  0.49776149567E+00  0.00000000000E+00 0. -1.
       23    1    1    2    0    0  0.00000000000E+00 -0.00000000000E+00  0.41758253452E+04  0.41768208682E+04  0.91188000000E+02 0.  1.
<scales pt_clust_3="100000.00000"></scales>
<rwgt>
<wgt id='bias'>   0.1000000E+01</wgt>
</rwgt>
<clustering>
<clus scale="   91.188">  2  3  1 -1</clus>
</clustering>
</event>
<event>
 3   1  0.8512900E+003  0.9118800E+02  0.7546771E-02  0.1180022E+00
       -4   -1    0    0    0  501 -0.00000000000E+00  0.00000000000E+00  0.29752627521E+01  0.29752627521E+01  0.00000000000E+00 0.  1.
        4   -1    0    0  501    0  0.00000000000E+00 -0.00000000000E+00 -0.69869890803E+03  0.69869890803E+03  0.00000000000E+00 0. -1.
       23    1    1    2    0    0  0.00000000000E+00 -0.00000000000E+00 -0.69572364527E+03  0.70167417078E+03  0.91188000000E+02 0.  1.
<scales pt_clust_3="100000.00000"></scales>
<rwgt>
<wgt id='bias'>   0.1000000E+01</wgt>
</rwgt>
<clustering>
<clus scale="   91.188">  2  3  1 -1</clus>
</clustering>
</event>
<event>
 5   3  0.8512900E+003  0.1919276E+03  0.7546771E-02  0.1061178E+00
       21   -1    0    0  503  502  0.00000000000E+00  0.00000000000E+00  0.14879523115E+01  0.14879523115E+01  0.00000000000E+00 0. -1.
        1   -1    0    0  502    0 -0.00000000000E+00 -0.00000000000E+00 -0.61890793866E+04  0.61890793866E+04  0.00000000000E+00 0. -1.
       23    1    1    2    0    0 -0.61177894132E+02 -0.20021137213E+02 -0.35833731193E+04  0.35851111202E+04  0.91188000000E+02 0. -1.
       21    1    1    2  503  501  0.12844139760E+02  0.13728722696E+02 -0.23989742691E+03  0.24063296780E+03  0.00000000000E+00 0. -1.
        1    1    1    2  501    0  0.48333754372E+02  0.62924145164E+01 -0.23643208881E+04  0.23648232510E+04  0.00000000000E+00 0. -1.
<scales pt_clust_3="100000.00000" pt_clust_4="29.82044" pt_clust_5="100000.00000"></scales>
<rwgt>
<wgt id='bias'>   0.1000000E+01</wgt>
</rwgt>
<clustering>
<clus scale="   29.820">  4  5 -1 -1</clus>
<clus scale="   80.306">  3  4 -1 -1</clus>
<clus scale="  191.928">  1  3  2 -1</clus>
</clustering>
</event>
<event>
 5   3  0.8512900E+003  0.2260625E+03  0.7546771E-02  0.1038228E+00
       21   -1    0    0  501  502  0.00000000000E+00  0.00000000000E+00  0.16264731568E+02  0.16264731568E+02  0.00000000000E+00 0. -1.
        2   -1    0    0  503    0 -0.00000000000E+00 -0.00000000000E+00 -0.14005854499E+04  0.14005854499E+04  0.00000000000E+00 0. -1.
       23    1    1    2    0    0 -0.69309405483E+02  0.88169085568E+01 -0.37804982960E+03  0.39511828174E+03  0.91188000000E+02 0. -1.
       21    1    1    2  503  502  0.21088089292E+02  0.17924689877E+02 -0.20554483018E+02  0.34474465758E+02  0.00000000000E+00 0. -1.
        2    1    1    2  501    0  0.48221316190E+02 -0.26741598434E+02 -0.98571640570E+03  0.98725743395E+03  0.00000000000E+00 0. -1.
<scales pt_clust_3="100000.00000" pt_clust_4="27.67674" pt_clust_5="100000.00000"></scales>
<rwgt>
<wgt id='bias'>   0.1000000E+01</wgt>
</rwgt>
<clustering>
<clus scale="   27.677">  1  4  2 -1</clus>
<clus scale="   55.988">  3  5 -1 -1</clus>
<clus scale="   27.677">  1  3  2 -1</clus>
</clustering>
</event>
<event>
 3   1  0.8512900E+003  0.9118800E+02  0.7546771E-02  0.1180022E+00
        2   -1    0    0  501    0  0.00000000000E+00  0.00000000000E+00  0.56207129383E+01  0.56207129383E+01  0.00000000000E+00 0. -1.
       -2   -1    0    0    0  501 -0.00000000000E+00 -0.00000000000E+00 -0.36984860440E+03  0.36984860440E+03  0.00000000000E+00 0.  1.
       23    1    1    2    0    0  0.00000000000E+00  0.00000000000E+00 -0.36422789147E+03  0.37546931734E+03  0.91188000000E+02 0. -1.
<scales pt_clust_3="100000.00000"></scales>
<rwgt>
<wgt id='bias'>   0.1000000E+01</wgt>
</rwgt>
<clustering>
<clus scale="   91.188">  1  3  2 -1</clus>
</clustering>
</event>
<event>
 5   3  0.8512900E+003  0.3133171E+02  0.7546771E-02  0.1170175E+00
       21   -1    0    0  501  502  0.00000000000E+00  0.00000000000E+00  0.57954553565E+01  0.57954553565E+01  0.00000000000E+00 0.  1.
       21   -1    0    0  502  503 -0.00000000000E+00 -0.00000000000E+00 -0.11631906084E+04  0.11631906084E+04  0.00000000000E+00 0. -1.
       23    1    1    2    0    0 -0.38517054680E+02  0.13802607349E+02 -0.57655861140E+03  0.58515737985E+03  0.91188000000E+02 0.  0.
        5    1    1    2  501    0  0.14987574948E+02 -0.26163654501E+02 -0.22674749538E+03  0.22874350457E+03  0.00000000000E+00 0. -1.
       -5    1    1    2    0  503  0.23529479732E+02  0.12361047152E+02 -0.35408904626E+03  0.35508517934E+03  0.00000000000E+00 0.  1.
<scales pt_clust_3="100000.00000" pt_clust_4="31.33171" pt_clust_5="26.57879"></scales>
<rwgt>
<wgt id='bias'>   0.1000000E+01</wgt>
</rwgt>
<clustering>
<clus scale="   26.579">  2  5  1 -1</clus>
<clus scale="   31.332">  1  4  2 -1</clus>
<clus scale="   31.332">  1  3  2 -1</clus>
</clustering>
</event>
<event>
 4   2  0.8512900E+003  0.9178239E+02  0.7546771E-02  0.1178867E+00
       -5   -1    0    0    0  501 -0.00000000000E+00  0.00000000000E+00  0.52032127107E+02  0.52032127107E+02  0.00000000000E+00 0.  1.
       21   -1    0    0  501  502  0.00000000000E+00 -0.00000000000E+00 -0.61173449952E+02  0.61173449952E+02  0.00000000000E+00 0.  1.
       23    1    1    2    0    0 -0.10244649472E+02 -0.19503201104E+01  0.90598539395E+01  0.92228460297E+02  0.91188000000E+02 0.  1.
       -5    1    1    2    0  502  0.10244649472E+02  0.19503201104E+01 -0.18201176784E+02  0.20977116762E+02  0.00000000000E+00 0.  1.
<scales pt_clust_3="100000.00000" pt_clust_4="10.42864"></scales>
<rwgt>
<wgt id='bias'>   0.1000000E+01</wgt>
</rwgt>
<clustering>
<clus scale="   10.429">  2  4  1 -1</clus>
<clus scale="   10.429">  2  3  1 -1</clus>
</clustering>
</event>
<event>
 4   2  0.8512900E+003  0.9216424E+02  0.7546771E-02  0.1178129E+00
        2   -1    0    0  502    0  0.00000000000E+00  0.00000000000E+00  0.97592685662E+04  0.97592685662E+04  0.00000000000E+00 0. -1.
       -2   -1    0    0    0  501 -0.00000000000E+00 -0.00000000000E+00 -0.46177202279E+00  0.46177202279E+00  0.00000000000E+00 0.  1.
       23    1    1    2    0    0 -0.55809394646E+01  0.12159300252E+02  0.46878648786E+04  0.46887707735E+04  0.91188000000E+02 0.  1.
       21    1    1    2  502  501  0.55809394646E+01 -0.12159300252E+02  0.50709419156E+04  0.50709595647E+04  0.00000000000E+00 0.  1.
<scales pt_clust_3="100000.00000" pt_clust_4="13.37892"></scales>
<rwgt>
<wgt id='bias'>   0.1000000E+01</wgt>
</rwgt>
<clustering>
<clus scale="   13.379">  1  4  2 -1</clus>
<clus scale="   13.379">  1  3  2 -1</clus>
</clustering>
</event>
<event>
 3   1  0.8512900E+003  0.9118800E+02  0.7546771E-02  0.1180022E+00
        4   -1    0    0  501    0  0.00000000000E+00  0.00000000000E+00  0.32908910663E+04  0.32908910663E+04  0.00000000000E+00 0. -1.
       -4   -1    0    0    0  501 -0.00000000000E+00 -0.00000000000E+00 -0.63168691825E+00  0.63168691825E+00  0.00000000000E+00 0.  1.
       23    1    1    2    0    0  0.00000000000E+00  0.00000000000E+00  0.32902593794E+04  0.32915227533E+04  0.91188000000E+02 0. -1.
<scales pt_clust_3="100000.00000"></scales>
<rwgt>
<wgt id='bias'>   0.1000000E+01</wgt>
</rwgt>
<clustering>
<clus scale="   91.188">  1  3  2 -1</clus>
</clustering>
</event>
<event>
 3   1  0.8512900E+003  0.9118800E+02  0.7546771E-02  0.1180022E+00
       -5   -1    0    0    0  501 -0.00000000000E+00  0.00000000000E+00  0.37377128033E+04  0.37377128033E+04  0.00000000000E+00 0.  1.
        5   -1    0    0  501    0  0.00000000000E+00 -0.00000000000E+00 -0.55617243629E+00  0.55617243629E+00  0.00000000000E+00 0. -1.
       23    1    1    2    0    0  0.00000000000E+00 -0.00000000000E+00  0.37371566309E+04  0.37382689758E+04  0.91188000000E+02 0.  1.
<scales pt_clust_3="100000.00000"></scales>
<rwgt>
<wgt id='bias'>   0.1000000E+01</wgt>
</rwgt>
<clustering>
<clus scale="   91.188">  2  3  1 -1</clus>
</clustering>
</event>
<event>
 3   1  0.8512900E+003  0.9118800E+02  0.7546771E-02  0.1180022E+00
       -2   -1    0    0    0  501 -0.00000000000E+00  0.00000000000E+00  0.22023642677E+03  0.22023642677E+03  0.00000000000E+00 0.  1.
        2   -1    0    0  501    0  0.00000000000E+00 -0.00000000000E+00 -0.94390054657E+01  0.94390054657E+01  0.00000000000E+00 0. -1.
       23    1    1    2    0    0  0.00000000000E+00 -0.00000000000E+00  0.21079742130E+03  0.22967543223E+03  0.91188000000E+02 0.  1.
<scales pt_clust_3="100000.00000"></scales>
<rwgt>
<wgt id='bias'>   0.1000000E+01</wgt>
</rwgt>
<clustering>
<clus scale="   91.188">  2  3  1 -1</clus>
</clustering>
</event>
<event>
 3   1  0.8512900E+003  0.9118800E+02  0.7546771E-02  0.1180022E+00
       -1   -1    0    0    0  501 -0.00000000000E+00  0.00000000000E+00  0.23615141623E+01  0.23615141623E+01  0.00000000000E+00 0.  1.
        1   -1    0    0  501    0  0.00000000000E+00 -0.00000000000E+00 -0.88028810886E+03  0.88028810886E+03  0.00000000000E+00 0. -1.
       23    1    1    2    0    0  0.00000000000E+00 -0.00000000000E+00 -0.87792659470E+03  0.88264962302E+03  0.91188000000E+02 0.  1.
<scales pt_clust_3="100000.00000"></scales>
<rwgt>
<wgt id='bias'>   0.1000000E+01</wgt>
</rwgt>
<clustering>
<clus scale="   91.188">  2  3  1 -1</clus>
</clustering>
</event>
<event>
 4   2  0.8512900E+003  0.9186555E+02  0.7546771E-02  0.1178706E+00
        4   -1    0    0  502    0 -0.00000000000E+00  0.00000000000E+00  0.15851897171E+04  0.15851897171E+04  0.00000000000E+00 0. -1.
       21   -1    0    0  501  502  0.00000000000E+00 -0.00000000000E+00 -0.33314708366E+01  0.33314708366E+01  0.00000000000E+00 0.  1.
       23    1    1    2    0    0 -0.64841824998E+01  0.90544242148E+01  0.15682429189E+04  0.15709312943E+04  0.91188000000E+02 0. -1.
        4    1    1    2  501    0  0.64841824998E+01 -0.90544242148E+01  0.13615327332E+02  0.17589893659E+02  0.00000000000E+00 0. -1.
<scales pt_clust_3="100000.00000" pt_clust_4="11.13675"></scales>
<rwgt>
<wgt id='bias'>   0.1000000E+01</wgt>
</rwgt>
<clustering>
<clus scale="   11.137">  2  4  1 -1</clus>
<clus scale="   11.137">  2  3  1 -1</clus>
</clustering>
</event>
<event>
 4   2  0.8512900E+003  0.1016477E+03  0.7546771E-02  0.1161015E+00
       21   -1    0    0  501  502  0.00000000000E+00  0.00000000000E+00  0.12175680428E+04  0.12175680428E+04  0.00000000000E+00 0. -1.
        3   -1    0    0  502    0 -0.00000000000E+00 -0.00000000000E+00 -0.47648138447E+01  0.47648138447E+01  0.00000000000E+00 0. -1.
       23    1    1    2    0    0  0.29604951774E+02 -0.33771945382E+02  0.66898088307E+03  0.67665919836E+03  0.91188000000E+02 0. -1.
        3    1    1    2  501    0 -0.29604951774E+02  0.33771945382E+02  0.54382234584E+03  0.54567365824E+03  0.00000000000E+00 0. -1.
<scales pt_clust_3="100000.00000" pt_clust_4="44.91099"></scales>
<rwgt>
<wgt id='bias'>   0.1000000E+01</wgt>
</rwgt>
<clustering>
<clus scale="   44.911">  1  4  2 -1</clus>
<clus scale="   44.911">  1  3  2 -1</clus>
</clustering>
</event>
<event>
 3   1  0.8512900E+003  0.9118800E+02  0.7546771E-02  0.1180022E+00
        4   -1    0    0  501    0  0.00000000000E+00  0.00000000000E+00  0.20624893233E+04  0.20624893233E+04  0.00000000000E+00 0. -1.
       -4   -1    0    0    0  501 -0.00000000000E+00 -0.00000000000E+00 -0.10079144714E+01  0.10079144714E+01  0.00000000000E+00 0.  1.
       23    1    1    2    0    0  0.00000000000E+00  0.00000000000E+00  0.20614814088E+04  0.20634972378E+04  0.91188000000E+02 0. -1.
<scales pt_clust_3="100000.00000"></scales>
<rwgt>
<wgt id='bias'>   0.1000000E+01</wgt>
</rwgt>
<clustering>
<clus scale="   91.188">  1  3  2 -1</clus>
</clustering>
</event>
<event>
 3   1  0.8512900E+003  0.9118800E+02  0.7546771E-02  0.1180022E+00
       -1   -1    0    0    0  501 -0.00000000000E+00  0.00000000000E+00  0.96175401890E+03  0.96175401890E+03  0.00000000000E+00 0.  1.
        1   -1    0    0  501    0  0.00000000000E+00 -0.00000000000E+00 -0.21614807894E+01  0.21614807894E+01  0.00000000000E+00 0. -1.
       23    1    1    2    0    0  0.00000000000E+00 -0.00000000000E+00  0.95959253811E+03  0.96391549969E+03  0.91188000000E+02 0.  1.
<scales pt_clust_3="100000.00000"></scales>
<rwgt>
<wgt id='bias'>   0.1000000E+01</wgt>
</rwgt>
<clustering>
<clus scale="   91.188">  2  3  1 -1</clus>
</clustering>
</event>
<event>
 4   2  0.8512900E+003  0.9285989E+02  0.7546771E-02  0.1176796E+00
        1   -1    0    0  502    0 -0.00000000000E+00  0.00000000000E+00  0.15742844425E+05  0.15742844425E+05  0.00000000000E+00 0. -1.
       21   -1    0    0  501  502  0.00000000000E+00 -0.00000000000E+00 -0.20838824538E+00  0.20838824538E+00  0.00000000000E+00 0.  1.
       23    1    1    2    0    0  0.13132657182E+02 -0.11629362199E+02  0.14441369265E+05  0.14441667813E+05  0.91188000000E+02 0.  0.
        1    1    1    2  501    0 -0.13132657182E+02  0.11629362199E+02  0.13012667717E+04  0.13013850007E+04  0.00000000000E+00 0. -1.
<scales pt_clust_3="100000.00000" pt_clust_4="17.54163"></scales>
<rwgt>
<wgt id='bias'>   0.1000000E+01</wgt>
</rwgt>
<clustering>
<clus scale="   17.542">  2  4  1 -1</clus>
<clus scale="   17.542">  2  3  1 -1</clus>
</clustering>
</event>
<event>
 3   1  0.8512900E+003  0.9118800E+02  0.7546771E-02  0.1180022E+00
        3   -1    0    0  501    0  0.00000000000E+00  0.00000000000E+00  0.34678015571E+02  0.34678015571E+02  0.00000000000E+00 0. -1.
       -3   -1    0    0    0  501 -0.00000000000E+00 -0.00000000000E+00 -0.59946130186E+02  0.59946130186E+02  0.00000000000E+00 0.  1.
       23    1    1    2    0    0  0.00000000000E+00  0.00000000000E+00 -0.25268114615E+02  0.94624145757E+02  0.91188000000E+02 0. -1.
<scales pt_clust_3="100000.00000"></scales>
<rwgt>
<wgt id='bias'>   0.1000000E+01</wgt>
</rwgt>
<clustering>
<clus scale="   91.188">  1  3  2 -1</clus>
</clustering>
</event>
<event>
 3   1  0.8512900E+003  0.9118800E+02  0.7546771E-02  0.1180022E+00
       -2   -1    0    0    0  501 -0.00000000000E+00  0.00000000000E+00  0.34153332435E+00  0.34153332435E+00  0.00000000000E+00 0.  1.
        2   -1    0    0  501    0  0.00000000000E+00 -0.00000000000E+00 -0.60867057115E+04  0.60867057115E+04  0.00000000000E+00 0. -1.
       23    1    1    2    0    0  0.00000000000E+00 -0.00000000000E+00 -0.60863641782E+04  0.60870472448E+04  0.91188000000E+02 0.  1.
<scales pt_clust_3="100000.00000"></scales>
<rwgt>
<wgt id='bias'>   0.1000000E+01</wgt>
</rwgt>
<clustering>
<clus scale="   91.188">  2  3  1 -1</clus>
</clustering>
</event>
<event>
 4   2  0.8512900E+003  0.9870916E+02  0.7546771E-02  0.1166086E+00
       21   -1    0    0  501  502  0.00000000000E+00  0.00000000000E+00  0.40808198241E+02  0.40808198241E+02  0.00000000000E+00 0. -1.
        2   -1    0    0  502    0 -0.00000000000E+00 -0.00000000000E+00 -0.44695437786E+03  0.44695437786E+03  0.00000000000E+00 0. -1.
       23    1    1    2    0    0  0.31717932148E+02 -0.20547988286E+02 -0.43124335367E+03  0.44239612167E+03  0.91188000000E+02 0. -1.
        2    1    1    2  501    0 -0.31717932148E+02  0.20547988286E+02  0.25097174048E+02  0.45366454431E+02  0.00000000000E+00 0. -1.
<scales pt_clust_3="100000.00000" pt_clust_4="37.79216"></scales>
<rwgt>
<wgt id='bias'>   0.1000000E+01</wgt>
</rwgt>
<clustering>
<clus scale="   37.792">  1  4  2 -1</clus>
<clus scale="   37.792">  1  3  2 -1</clus>
</clustering>
</event>
<event>
 3   1  0.8512900E+003  0.9118800E+02  0.7546771E-02  0.1180022E+00
        1   -1    0    0  501    0  0.00000000000E+00  0.00000000000E+00  0.17141256503E+05  0.17141256503E+05  0.00000000000E+00 0. -1.
       -1   -1    0    0    0  501 -0.00000000000E+00 -0.00000000000E+00 -0.12127540566E+00  0.12127540566E+00  0.00000000000E+00 0.  1.
       23    1    1    2    0    0  0.00000000000E+00  0.00000000000E+00  0.17141135228E+05  0.17141377779E+05  0.91188000000E+02 0. -1.
<scales pt_clust_3="100000.00000"></scales>
<rwgt>
<wgt id='bias'>   0.1000000E+01</wgt>
</rwgt>
<clustering>
<clus scale="   91.188">  1  3  2 -1</clus>
</clustering>
</event>
<event>
 3   1  0.8512900E+003  0.9118800E+02  0.7546771E-02  0.1180022E+00
       -3   -1    0    0    0  501 -0.00000000000E+00  0.00000000000E+00  0.23060017724E+02  0.23060017724E+02  0.00000000000E+00 0.  1.
        3   -1    0    0  501    0  0.00000000000E+00 -0.00000000000E+00 -0.90147928804E+02  0.90147928804E+02  0.00000000000E+00 0. -1.
       23    1    1    2    0    0  0.00000000000E+00 -0.00000000000E+00 -0.67087911080E+02  0.11320794653E+03  0.91188000000E+02 0.  1.
<scales pt_clust_3="100000.00000"></scales>
<rwgt>
<wgt id='bias'>   0.1000000E+01</wgt>
</rwgt>
<clustering>
<clus scale="   91.188">  2  3  1 -1</clus>
</clustering>
</event>
<event>
 5   3  0.8512900E+003  0.9251679E+02  0.7546771E-02  0.1177452E+00
       21   -1    0    0  503  502  0.00000000000E+00  0.00000000000E+00  0.12064110417E+04  0.12064110417E+04  0.00000000000E+00 0.  1.
       -5   -1    0    0    0  501 -0.00000000000E+00 -0.00000000000E+00 -0.62651488604E+03  0.62651488604E+03  0.00000000000E+00 0.  1.
       23    1    1    2    0    0 -0.36171954056E+01 -0.15204534071E+02 -0.61806775022E+03  0.62495380402E+03  0.91188000000E+02 0.  1.
       21    1    1    2  503  501  0.20747202619E+02  0.93249248397E+01  0.11861070488E+04  0.11863251375E+04  0.00000000000E+00 0.  1.
       -5    1    1    2    0  502 -0.17130007214E+02  0.58796092313E+01  0.11856857023E+02  0.21646986172E+02  0.00000000000E+00 0.  1.
<scales pt_clust_3="100000.00000" pt_clust_4="15.62389" pt_clust_5="18.11096"></scales>
<rwgt>
<wgt id='bias'>   0.1000000E+01</wgt>
</rwgt>
<clustering>
<clus scale="   18.111">  1  5  2 -1</clus>
<clus scale="   15.624">  1  4  2 -1</clus>
<clus scale="   18.111">  1  3  2 -1</clus>
</clustering>
</event>
<event>
 5   3  0.8512900E+003  0.9489352E+02  0.7546771E-02  0.1172974E+00
        1   -1    0    0  502    0 -0.00000000000E+00  0.00000000000E+00  0.75621217000E+00  0.75621217000E+00  0.00000000000E+00 0. -1.
       21   -1    0    0  503  502  0.00000000000E+00 -0.00000000000E+00 -0.89014476475E+04  0.89014476475E+04  0.00000000000E+00 0.  1.
       23    1    1    2    0    0  0.14987182735E+02 -0.83603478104E+01 -0.62505829843E+04  0.62512716631E+04  0.91188000000E+02 0.  1.
       21    1    1    2  503  501  0.47090792315E+01 -0.10046957434E+02 -0.21938111214E+04  0.21938391813E+04  0.00000000000E+00 0.  1.
        1    1    1    2  501    0 -0.19696261966E+02  0.18407305245E+02 -0.45629732961E+03  0.45709301529E+03  0.00000000000E+00 0. -1.
<scales pt_clust_3="100000.00000" pt_clust_4="11.09580" pt_clust_5="26.25890"></scales>
<rwgt>
<wgt id='bias'>   0.1000000E+01</wgt>
</rwgt>
<clustering>
<clus scale="   11.096">  2  4  1 -1</clus>
<clus scale="   26.259">  2  5  1 -1</clus>
<clus scale="   11.096">  2  3  1 -1</clus>
</clustering>
</event>
<event>
 3   1  0.8512900E+003  0.9118800E+02  0.7546771E-02  0.1180022E+00
        1   -1    0    0  501    0  0.00000000000E+00  0.00000000000E+00  0.55087466442E+04  0.55087466442E+04  0.00000000000E+00 0. -1.
       -1   -1    0    0    0  501 -0.00000000000E+00 -0.00000000000E+00 -0.37736584568E+00  0.37736584568E+00  0.00000000000E+00 0.  1.
       23    1    1    2    0    0  0.00000000000E+00  0.00000000000E+00  0.55083692783E+04  0.55091240100E+04  0.91188000000E+02 0. -1.
<scales pt_clust_3="100000.00000"></scales>
<rwgt>
<wgt id='bias'>   0.1000000E+01</wgt>
</rwgt>
<clustering>
<clus scale="   91.188">  1  3  2 -1</clus>
</clustering>
</event>
<event>
 3   1  0.8512900E+003  0.9118800E+02  0.7546771E-02  0.1180022E+00
       -4   -1    0    0    0  501 -0.00000000000E+00  0.00000000000E+00  0.50153481697E+03  0.50153481697E+03  0.00000000000E+00 0. -1.
        4   -1    0    0  501    0  0.00000000000E+00 -0.00000000000E+00 -0.41449023391E+01  0.41449023391E+01  0.00000000000E+00 0.  1.
       23    1    1    2    0    0  0.00000000000E+00 -0.00000000000E+00  0.49738991463E+03  0.50567971931E+03  0.91188000000E+02 0. -1.
<scales pt_clust_3="100000.00000"></scales>
<rwgt>
<wgt id='bias'>   0.1000000E+01</wgt>
</rwgt>
<clustering>
<clus scale="   91.188">  2  3  1 -1</clus>
</clustering>
</event>
<event>
 5   3  0.8512900E+003  0.1029081E+03  0.7546771E-02  0.1158898E+00
        1   -1    0    0  501    0  0.00000000000E+00  0.00000000000E+00  0.11778667842E+04  0.11778667842E+04  0.00000000000E+00 0.  1.
       -2   -1    0    0    0  501 -0.00000000000E+00 -0.00000000000E+00 -0.70605229867E+02  0.70605229867E+02  0.00000000000E+00 0. -1.
       23    1    1    2    0    0 -0.20304991901E+02  0.18794459446E+02 -0.30707155518E+02  0.10011845557E+03  0.91188000000E+02 0. -1.
        1    1    1    2  502    0 -0.14812423508E+01 -0.47913840105E+02  0.10716197985E+04  0.10726914387E+04  0.00000000000E+00 0.  1.
       -2    1    1    2    0  502  0.21786234252E+02  0.29119380660E+02  0.66348911374E+02  0.75662119805E+02  0.00000000000E+00 0. -1.
<scales pt_clust_3="100000.00000" pt_clust_4="47.69511" pt_clust_5="36.36727"></scales>
<rwgt>
<wgt id='bias'>   0.1000000E+01</wgt>
</rwgt>
<clustering>
<clus scale="   36.367">  2  5  1 -1</clus>
<clus scale="   47.695">  2  4  1 -1</clus>
<clus scale="  102.908">  1  3  2 -1</clus>
</clustering>
</event>
<event>
 3   1  0.8512900E+003  0.9118800E+02  0.7546771E-02  0.1180022E+00
       -1   -1    0    0    0  501 -0.00000000000E+00  0.00000000000E+00  0.67177823099E+03  0.67177823099E+03  0.00000000000E+00 0.  1.
        1   -1    0    0  501    0  0.00000000000E+00 -0.00000000000E+00 -0.30944927062E+01  0.30944927062E+01  0.00000000000E+00 0. -1.
       23    1    1    2    0    0  0.00000000000E+00 -0.00000000000E+00  0.66868373828E+03  0.67487272370E+03  0.91188000000E+02 0.  1.
<scales pt_clust_3="100000.00000"></scales>
<rwgt>
<wgt id='bias'>   0.1000000E+01</wgt>
</rwgt>
<clustering>
<clus scale="   91.188">  2  3  1 -1</clus>
</clustering>
</event>
<event>
 4   2  0.8512900E+003  0.1140547E+03  0.7546771E-02  0.1141533E+00
       21   -1    0    0  501  502  0.00000000000E+00  0.00000000000E+00  0.59882636925E+03  0.59882636925E+03  0.00000000000E+00 0. -1.
       -1   -1    0    0    0  501 -0.00000000000E+00 -0.00000000000E+00 -0.54308210540E+01  0.54308210540E+01  0.00000000000E+00 0.  1.
       23    1    1    2    0    0  0.16714136179E+02 -0.11892731158E+02  0.49474305457E+03  0.50349452906E+03  0.91188000000E+02 0. -1.
       -1    1    1    2    0  502 -0.16714136179E+02  0.11892731158E+02  0.98652493620E+02  0.10076266124E+03  0.00000000000E+00 0.  1.
<scales pt_clust_3="100000.00000" pt_clust_4="100000.00000"></scales>
<rwgt>
<wgt id='bias'>   0.1000000E+01</wgt>
</rwgt>
<clustering>
<clus scale="   20.513">  3  4 -1 -1</clus>
<clus scale="  114.055">  1  3  2 -1</clus>
</clustering>
</event>
<event>
 3   1  0.8512900E+003  0.9118800E+02  0.7546771E-02  0.1180022E+00
       -1   -1    0    0    0  501 -0.00000000000E+00  0.00000000000E+00  0.37748157212E+01  0.37748157212E+01  0.00000000000E+00 0.  1.
        1   -1    0    0  501    0  0.00000000000E+00 -0.00000000000E+00 -0.55070577998E+03  0.55070577998E+03  0.00000000000E+00 0. -1.
       23    1    1    2    0    0  0.00000000000E+00 -0.00000000000E+00 -0.54693096425E+03  0.55448059570E+03  0.91188000000E+02 0.  1.
<scales pt_clust_3="100000.00000"></scales>
<rwgt>
<wgt id='bias'>   0.1000000E+01</wgt>
</rwgt>
<clustering>
<clus scale="   91.188">  2  3  1 -1</clus>
</clustering>
</event>
<event>
 3   1  0.8512900E+003  0.9118800E+02  0.7546771E-02  0.1180022E+00
       -1   -1    0    0    0  501 -0.00000000000E+00  0.00000000000E+00  0.20318027483E+00  0.20318027483E+00  0.00000000000E+00 0.  1.
        1   -1    0    0  501    0  0.00000000000E+00 -0.00000000000E+00 -0.10231371317E+05  0.10231371317E+05  0.00000000000E+00 0. -1.
       23    1    1    2    0    0  0.00000000000E+00 -0.00000000000E+00 -0.10231168136E+05  0.10231574497E+05  0.91188000000E+02 0.  1.
<scales pt_clust_3="100000.00000"></scales>
<rwgt>
<wgt id='bias'>   0.1000000E+01</wgt>
</rwgt>
<clustering>
<clus scale="   91.188">  2  3  1 -1</clus>
</clustering>
</event>
<event>
 4   2  0.8512900E+003  0.9365972E+02  0.7546771E-02  0.1175280E+00
        2   -1    0    0  502    0  0.00000000000E+00  0.00000000000E+00  0.10166631893E+05  0.10166631893E+05  0.00000000000E+00 0. -1.
       -2   -1    0    0    0  501 -0.00000000000E+00 -0.00000000000E+00 -0.93056991699E+00  0.93056991699E+00  0.00000000000E+00 0.  1.
       23    1    1    2    0    0 -0.55801766370E+01 -0.20633776728E+02  0.23935584579E+04  0.23953902049E+04  0.91188000000E+02 0.  1.
       21    1    1    2  502  501  0.55801766370E+01  0.20633776728E+02  0.77721428649E+04  0.77721722577E+04  0.00000000000E+00 0. -1.
<scales pt_clust_3="100000.00000" pt_clust_4="21.37501"></scales>
<rwgt>
<wgt id='bias'>   0.1000000E+01</wgt>
</rwgt>
<clustering>
<clus scale="   21.375">  1  4  2 -1</clus>
<clus scale="   21.375">  1  3  2 -1</clus>
</clustering>
</event>
<event>
 5   3  0.8512900E+003  0.7948445E+02  0.7546771E-02  0.1131827E+00
        3   -1    0    0  502    0  0.00000000000E+00  0.00000000000E+00  0.28370061534E+03  0.28370061534E+03  0.00000000000E+00 0. -1.
       -3   -1    0    0    0  501 -0.00000000000E+00 -0.00000000000E+00 -0.12008667400E+03  0.12008667400E+03  0.00000000000E+00 0.  1.
       23    1    1    2    0    0  0.49140730129E+02  0.26725669304E+02 -0.35111275329E+02  0.11259274291E+03  0.91188000000E+02 0.  1.
       21    1    1    2  502  503 -0.80251594759E+02 -0.16588259979E+02  0.23107875660E+03  0.24517928253E+03  0.00000000000E+00 0. -1.
       21    1    1    2  503  501  0.31110864630E+02 -0.10137409326E+02 -0.32353539926E+02  0.46015263898E+02  0.00000000000E+00 0.  1.
<scales pt_clust_3="100000.00000" pt_clust_4="79.48445" pt_clust_5="32.72083"></scales>
<rwgt>
<wgt id='bias'>   0.1000000E+01</wgt>
</rwgt>
<clustering>
<clus scale="   32.721">  2  5  1 -1</clus>
<clus scale="   79.484">  1  4  2 -1</clus>
<clus scale="   79.484">  1  3  2 -1</clus>
</clustering>
</event>
<event>
 3   1  0.8512900E+003  0.9118800E+02  0.7546771E-02  0.1180022E+00
       -3   -1    0    0    0  501 -0.00000000000E+00  0.00000000000E+00  0.53295741784E+02  0.53295741784E+02  0.00000000000E+00 0.  1.
        3   -1    0    0  501    0  0.00000000000E+00 -0.00000000000E+00 -0.39005233184E+02  0.39005233184E+02  0.00000000000E+00 0. -1.
       23    1    1    2    0    0  0.00000000000E+00 -0.00000000000E+00  0.14290508600E+02  0.92300974968E+02  0.91188000000E+02 0.  1.
<scales pt_clust_3="100000.00000"></scales>
<rwgt>
<wgt id='bias'>   0.1000000E+01</wgt>
</rwgt>
<clustering>
<clus scale="   91.188">  2  3  1 -1</clus>
</clustering>
</event>
<event>
 3   1  0.8512900E+003  0.9118800E+02  0.7546771E-02  0.1180022E+00
        1   -1    0    0  501    0  0.00000000000E+00  0.00000000000E+00  0.36128387242E+03  0.36128387242E+03  0.00000000000E+00 0. -1.
       -1   -1    0    0    0  501 -0.00000000000E+00 -0.00000000000E+00 -0.57539596830E+01  0.57539596830E+01  0.00000000000E+00 0.  1.
       23    1    1    2    0    0  0.00000000000E+00  0.00000000000E+00  0.35552991273E+03  0.36703783210E+03  0.91188000000E+02 0. -1.
<scales pt_clust_3="100000.00000"></scales>
<rwgt>
<wgt id='bias'>   0.1000000E+01</wgt>
</rwgt>
<clustering>
<clus scale="   91.188">  1  3  2 -1</clus>
</clustering>
</event>
<event>
 4   2  0.8512900E+003  0.1249576E+03  0.7546771E-02  0.1126545E+00
       21   -1    0    0  501  502  0.00000000000E+00  0.00000000000E+00  0.80842299206E+01  0.80842299206E+01  0.00000000000E+00 0. -1.
        1   -1    0    0  502    0 -0.00000000000E+00 -0.00000000000E+00 -0.18811318646E+04  0.18811318646E+04  0.00000000000E+00 0. -1.
       23    1    1    2    0    0  0.74448448519E+02 -0.41911481557E+02 -0.15511063480E+04  0.15561315169E+04  0.91188000000E+02 0. -1.
        1    1    1    2  501    0 -0.74448448519E+02  0.41911481557E+02 -0.32194128671E+03  0.33308457764E+03  0.00000000000E+00 0. -1.
<scales pt_clust_3="100000.00000" pt_clust_4="85.43503"></scales>
<rwgt>
<wgt id='bias'>   0.1000000E+01</wgt>
</rwgt>
<clustering>
<clus scale="   85.435">  1  4  2 -1</clus>
<clus scale="   85.435">  1  3  2 -1</clus>
</clustering>
</event>
<event>
 4   2  0.8512900E+003  0.9213976E+02  0.7546771E-02  0.1178176E+00
        4   -1    0    0  502    0 -0.00000000000E+00  0.00000000000E+00  0.29416552345E+02  0.29416552345E+02  0.00000000000E+00 0. -1.
       21   -1    0    0  501  502  0.00000000000E+00 -0.00000000000E+00 -0.10444262726E+03  0.10444262726E+03  0.00000000000E+00 0.  1.
       23    1    1    2    0    0 -0.11679830545E+02  0.61697663568E+01 -0.48265024306E+02  0.10401561601E+03  0.91188000000E+02 0.  0.
        4    1    1    2  501    0  0.11679830545E+02 -0.61697663568E+01 -0.26761050610E+02  0.29843563598E+02  0.00000000000E+00 0. -1.
<scales pt_clust_3="100000.00000" pt_clust_4="13.20926"></scales>
<rwgt>
<wgt id='bias'>   0.1000000E+01</wgt>
</rwgt>
<clustering>
<clus scale="   13.209">  2  4  1 -1</clus>
<clus scale="   13.209">  2  3  1 -1</clus>
</clustering>
</event>
<event>
 3   1  0.8512900E+003  0.9118800E+02  0.7546771E-02  0.1180022E+00
        2   -1    0    0  501    0  0.00000000000E+00  0.00000000000E+00  0.17686285698E+05  0.17686285698E+05  0.00000000000E+00 0. -1.
       -2   -1    0    0    0  501 -0.00000000000E+00 -0.00000000000E+00 -0.11753812369E+00  0.11753812369E+00  0.00000000000E+00 0.  1.
       23    1    1    2    0    0  0.00000000000E+00  0.00000000000E+00  0.17686168160E+05  0.17686403236E+05  0.91188000000E+02 0. -1.
<scales pt_clust_3="100000.00000"></scales>
<rwgt>
<wgt id='bias'>   0.1000000E+01</wgt>
</rwgt>
<clustering>
<clus scale="   91.188">  1  3  2 -1</clus>
</clustering>
</event>
<event>
 4   2  0.8512900E+003  0.1032914E+03  0.7546771E-02  0.1158261E+00
       21   -1    0    0  501  502  0.00000000000E+00  0.00000000000E+00  0.55280583009E+02  0.55280583009E+02  0.00000000000E+00 0.  1.
        2   -1    0    0  502    0 -0.00000000000E+00 -0.00000000000E+00 -0.12673773870E+03  0.12673773870E+03  0.00000000000E+00 0. -1.
       23    1    1    2    0    0  0.48318527491E+02  0.43798748461E+01 -0.10081021742E+02  0.10378218415E+03  0.91188000000E+02 0.  1.
        2    1    1    2  501    0 -0.48318527491E+02 -0.43798748461E+01 -0.61376133951E+02  0.78236137567E+02  0.00000000000E+00 0. -1.
<scales pt_clust_3="100000.00000" pt_clust_4="48.51665"></scales>
<rwgt>
<wgt id='bias'>   0.1000000E+01</wgt>
</rwgt>
<clustering>
<clus scale="   48.517">  1  4  2 -1</clus>
<clus scale="   48.517">  1  3  2 -1</clus>
</clustering>
</event>
<event>
 4   2  0.8512900E+003  0.1458329E+03  0.7546771E-02  0.1102093E+00
       21   -1    0    0  501  502  0.00000000000E+00  0.00000000000E+00  0.38990550667E+02  0.38990550667E+02  0.00000000000E+00 0. -1.
        4   -1    0    0  502    0 -0.00000000000E+00 -0.00000000000E+00 -0.43394976396E+03  0.43394976396E+03  0.00000000000E+00 0. -1.
       23    1    1    2    0    0  0.10813204647E+03  0.35488469528E+02 -0.23648323329E+03  0.27783365872E+03  0.91188000000E+02 0. -1.
        4    1    1    2  501    0 -0.10813204647E+03 -0.35488469528E+02 -0.15847598000E+03  0.19510665591E+03  0.00000000000E+00 0. -1.
<scales pt_clust_3="100000.00000" pt_clust_4="113.80673"></scales>
<rwgt>
<wgt id='bias'>   0.1000000E+01</wgt>
</rwgt>
<clustering>
<clus scale="  113.807">  1  4  2 -1</clus>
<clus scale="  113.807">  1  3  2 -1</clus>
</clustering>
</event>
<event>
 4   2  0.8512900E+003  0.9212243E+02  0.7546771E-02  0.1178210E+00
       21   -1    0    0  501  502  0.00000000000E+00  0.00000000000E+00  0.21198045536E+00  0.21198045536E+00  0.00000000000E+00 0. -1.
        2   -1    0    0  502    0 -0.00000000000E+00 -0.00000000000E+00 -0.13265071717E+05  0.13265071717E+05  0.00000000000E+00 0.  1.
       23    1    1    2    0    0 -0.12597509819E+02  0.35487021401E+01 -0.12092904712E+05  0.12093255597E+05  0.91188000000E+02 0.  0.
        2    1    1    2  501    0  0.12597509819E+02 -0.35487021401E+01 -0.11719550238E+04  0.11720281005E+04  0.00000000000E+00 0.  1.
<scales pt_clust_3="100000.00000" pt_clust_4="13.08780"></scales>
<rwgt>
<wgt id='bias'>   0.1000000E+01</wgt>
</rwgt>
<clustering>
<clus scale="   13.088">  1  4  2 -1</clus>
<clus scale="   13.088">  1  3  2 -1</clus>
</clustering>
</event>
<event>
 4   2  0.8512900E+003  0.9380706E+02  0.7546771E-02  0.1175003E+00
        3   -1    0    0  502    0 -0.00000000000E+00  0.00000000000E+00  0.29603895418E+03  0.29603895418E+03  0.00000000000E+00 0. -1.
       21   -1    0    0  501  502  0.00000000000E+00 -0.00000000000E+00 -0.22845231866E+02  0.22845231866E+02  0.00000000000E+00 0. -1.
       23    1    1    2    0    0  0.58555646193E+01 -0.21218502472E+02  0.28043775512E+03  0.29571117382E+03  0.91188000000E+02 0. -1.
        3    1    1    2  501    0 -0.58555646193E+01  0.21218502472E+02 -0.72440328052E+01  0.23173012222E+02  0.00000000000E+00 0. -1.
<scales pt_clust_3="100000.00000" pt_clust_4="22.01164"></scales>
<rwgt>
<wgt id='bias'>   0.1000000E+01</wgt>
</rwgt>
<clustering>
<clus scale="   22.012">  2  4  1 -1</clus>
<clus scale="   22.012">  2  3  1 -1</clus>
</clustering>
</event>
<event>
 3   1  0.8512900E+003  0.9118800E+02  0.7546771E-02  0.1180022E+00
        1   -1    0    0  501    0  0.00000000000E+00  0.00000000000E+00  0.30786224365E+00  0.30786224365E+00  0.00000000000E+00 0. -1.
       -1   -1    0    0    0  501 -0.00000000000E+00 -0.00000000000E+00 -0.67524124145E+04  0.67524124145E+04  0.00000000000E+00 0.  1.
       23    1    1    2    0    0  0.00000000000E+00  0.00000000000E+00 -0.67521045522E+04  0.67527202767E+04  0.91188000000E+02 0. -1.
<scales pt_clust_3="100000.00000"></scales>
<rwgt>
<wgt id='bias'>   0.1000000E+01</wgt>
</rwgt>
<clustering>
<clus scale="   91.188">  1  3  2 -1</clus>
</clustering>
</event>
<event>
 4   2  0.8512900E+003  0.9185833E+02  0.7546771E-02  0.1178720E+00
        4   -1    0    0  502    0 -0.00000000000E+00  0.00000000000E+00  0.57126340580E+02  0.57126340580E+02  0.00000000000E+00 0. -1.
       21   -1    0    0  501  502  0.00000000000E+00 -0.00000000000E+00 -0.47516471922E+02  0.47516471922E+02  0.00000000000E+00 0.  1.
       23    1    1    2    0    0 -0.86496807153E+01  0.69198087863E+01  0.13619327660E+02  0.92862469061E+02  0.91188000000E+02 0.  0.
        4    1    1    2  501    0  0.86496807153E+01 -0.69198087863E+01 -0.40094590018E+01  0.11780343442E+02  0.00000000000E+00 0. -1.
<scales pt_clust_3="100000.00000" pt_clust_4="11.07704"></scales>
<rwgt>
<wgt id='bias'>   0.1000000E+01</wgt>
</rwgt>
<clustering>
<clus scale="   11.077">  2  4  1 -1</clus>
<clus scale="   11.077">  2  3  1 -1</clus>
</clustering>
</event>
<event>
 5   3  0.8512900E+003  0.9267197E+02  0.7546771E-02  0.1177155E+00
       -2   -1    0    0    0  501 -0.00000000000E+00  0.00000000000E+00  0.11682334339E+04  0.11682334339E+04  0.00000000000E+00 0.  1.
       21   -1    0    0  503  502  0.00000000000E+00 -0.00000000000E+00 -0.29376228681E+02  0.29376228681E+02  0.00000000000E+00 0.  1.
       23    1    1    2    0    0  0.25400169015E+02  0.64755703995E+01  0.10808815307E+04  0.10850378963E+04  0.91188000000E+02 0.  1.
       21    1    1    2  503  501 -0.12506739282E+02 -0.61095469607E+01  0.83138470848E+02  0.84295613329E+02  0.00000000000E+00 0. -1.
       -2    1    1    2    0  502 -0.12893429734E+02 -0.36602343881E+00 -0.25162796373E+02  0.28276152934E+02  0.00000000000E+00 0.  1.
<scales pt_clust_3="100000.00000" pt_clust_4="16.51798" pt_clust_5="12.89862"></scales>
<rwgt>
<wgt id='bias'>   0.1000000E+01</wgt>
</rwgt>
<clustering>
<clus scale="   12.899">  2  5  1 -1</clus>
<clus scale="   16.518">  2  4  1 -1</clus>
<clus scale="   12.899">  2  3  1 -1</clus>
</clustering>
</event>
<event>
 3   1  0.8512900E+003  0.9118800E+02  0.7546771E-02  0.1180022E+00
       -1   -1    0    0    0  501 -0.00000000000E+00  0.00000000000E+00  0.27188296894E+01  0.27188296894E+01  0.00000000000E+00 0.  1.
        1   -1    0    0  501    0  0.00000000000E+00 -0.00000000000E+00 -0.76459840206E+03  0.76459840206E+03  0.00000000000E+00 0. -1.
       23    1    1    2    0    0  0.00000000000E+00 -0.00000000000E+00 -0.76187957237E+03  0.76731723175E+03  0.91188000000E+02 0.  1.
<scales pt_clust_3="100000.00000"></scales>
<rwgt>
<wgt id='bias'>   0.1000000E+01</wgt>
</rwgt>
<clustering>
<clus scale="   91.188">  2  3  1 -1</clus>
</clustering>
</event>
<event>
 3   1  0.8512900E+003  0.9118800E+02  0.7546771E-02  0.1180022E+00
        1   -1    0    0  501    0  0.00000000000E+00  0.00000000000E+00  0.12793877848E+04  0.12793877848E+04  0.00000000000E+00 0. -1.
       -1   -1    0    0    0  501 -0.00000000000E+00 -0.00000000000E+00 -0.16248496826E+01  0.16248496826E+01  0.00000000000E+00 0.  1.
       23    1    1    2    0    0  0.00000000000E+00  0.00000000000E+00  0.12777629351E+04  0.12810126345E+04  0.91188000000E+02 0. -1.
<scales pt_clust_3="100000.00000"></scales>
<rwgt>
<wgt id='bias'>   0.1000000E+01</wgt>
</rwgt>
<clustering>
<clus scale="   91.188">  1  3  2 -1</clus>
</clustering>
</event>
<event>
 4   2  0.8512900E+003  0.9213038E+02  0.7546771E-02  0.1178195E+00
       21   -1    0    0  501  502  0.00000000000E+00  0.00000000000E+00  0.80457071440E+00  0.80457071440E+00  0.00000000000E+00 0.  1.
        2   -1    0    0  502    0 -0.00000000000E+00 -0.00000000000E+00 -0.74466988833E+04  0.74466988833E+04  0.00000000000E+00 0.  1.
       23    1    1    2    0    0  0.62238640932E+01  0.11576623164E+02 -0.73627725172E+04  0.73633489084E+04  0.91188000000E+02 0.  1.
        2    1    1    2  501    0 -0.62238640932E+01 -0.11576623164E+02 -0.83121795351E+02  0.84154545632E+02  0.00000000000E+00 0.  1.
<scales pt_clust_3="100000.00000" pt_clust_4="13.14362"></scales>
<rwgt>
<wgt id='bias'>   0.1000000E+01</wgt>
</rwgt>
<clustering>
<clus scale="   13.144">  1  4  2 -1</clus>
<clus scale="   13.144">  1  3  2 -1</clus>
</clustering>
</event>
<event>
 3   1  0.8512900E+003  0.9118800E+02  0.7546771E-02  0.1180022E+00
       -2   -1    0    0    0  501 -0.00000000000E+00  0.00000000000E+00  0.18209874759E+02  0.18209874759E+02  0.00000000000E+00 0.  1.
        2   -1    0    0  501    0  0.00000000000E+00 -0.00000000000E+00 -0.11415854659E+03  0.11415854659E+03  0.00000000000E+00 0. -1.
       23    1    1    2    0    0  0.00000000000E+00 -0.00000000000E+00 -0.95948671826E+02  0.13236842134E+03  0.91188000000E+02 0.  1.
<scales pt_clust_3="100000.00000"></scales>
<rwgt>
<wgt id='bias'>   0.1000000E+01</wgt>
</rwgt>
<clustering>
<clus scale="   91.188">  2  3  1 -1</clus>
</clustering>
</event>
<event>
 3   1  0.8512900E+003  0.9118800E+02  0.7546771E-02  0.1180022E+00
        1   -1    0    0  501    0  0.00000000000E+00  0.00000000000E+00  0.96113733617E+02  0.96113733617E+02  0.00000000000E+00 0. -1.
       -1   -1    0    0    0  501 -0.00000000000E+00 -0.00000000000E+00 -0.21628676338E+02  0.21628676338E+02  0.00000000000E+00 0.  1.
       23    1    1    2    0    0  0.00000000000E+00  0.00000000000E+00  0.74485057279E+02  0.11774240995E+03  0.91188000000E+02 0. -1.
<scales pt_clust_3="100000.00000"></scales>
<rwgt>
<wgt id='bias'>   0.1000000E+01</wgt>
</rwgt>
<clustering>
<clus scale="   91.188">  1  3  2 -1</clus>
</clustering>
</event>
<event>
 3   1  0.8512900E+003  0.9118800E+02  0.7546771E-02  0.1180022E+00
       -2   -1    0    0    0  501 -0.00000000000E+00  0.00000000000E+00  0.40804681896E+02  0.40804681896E+02  0.00000000000E+00 0. -1.
        2   -1    0    0  501    0  0.00000000000E+00 -0.00000000000E+00 -0.50945448890E+02  0.50945448890E+02  0.00000000000E+00 0.  1.
       23    1    1    2    0    0  0.00000000000E+00 -0.00000000000E+00 -0.10140766994E+02  0.91750130786E+02  0.91188000000E+02 0. -1.
<scales pt_clust_3="100000.00000"></scales>
<rwgt>
<wgt id='bias'>   0.1000000E+01</wgt>
</rwgt>
<clustering>
<clus scale="   91.188">  2  3  1 -1</clus>
</clustering>
</event>
<event>
 3   1  0.8512900E+003  0.9118800E+02  0.7546771E-02  0.1180022E+00
       -2   -1    0    0    0  501 -0.00000000000E+00  0.00000000000E+00  0.10780663567E+02  0.10780663567E+02  0.00000000000E+00 0.  1.
        2   -1    0    0  501    0  0.00000000000E+00 -0.00000000000E+00 -0.19282791111E+03  0.19282791111E+03  0.00000000000E+00 0. -1.
       23    1    1    2    0    0  0.00000000000E+00 -0.00000000000E+00 -0.18204724754E+03  0.20360857468E+03  0.91188000000E+02 0.  1.
<scales pt_clust_3="100000.00000"></scales>
<rwgt>
<wgt id='bias'>   0.1000000E+01</wgt>
</rwgt>
<clustering>
<clus scale="   91.188">  2  3  1 -1</clus>
</clustering>
</event>
<event>
 4   2  0.8512900E+003  0.9646066E+02  0.7546771E-02  0.1170102E+00
       21   -1    0    0  501  502  0.00000000000E+00  0.00000000000E+00  0.12181804494E+02  0.12181804494E+02  0.00000000000E+00 0.  1.
       -1   -1    0    0    0  501 -0.00000000000E+00 -0.00000000000E+00 -0.34013242519E+03  0.34013242519E+03  0.00000000000E+00 0.  1.
       23    1    1    2    0    0 -0.12323283522E+02  0.28940350435E+02 -0.22907434084E+03  0.24855524974E+03  0.91188000000E+02 0.  1.
       -1    1    1    2    0  502  0.12323283522E+02 -0.28940350435E+02 -0.98876279859E+02  0.10375897994E+03  0.00000000000E+00 0.  1.
<scales pt_clust_3="100000.00000" pt_clust_4="31.45486"></scales>
<rwgt>
<wgt id='bias'>   0.1000000E+01</wgt>
</rwgt>
<clustering>
<clus scale="   31.455">  1  4  2 -1</clus>
<clus scale="   31.455">  1  3  2 -1</clus>
</clustering>
</event>
<event>
 3   1  0.8512900E+003  0.9118800E+02  0.7546771E-02  0.1180022E+00
       -1   -1    0    0    0  501 -0.00000000000E+00  0.00000000000E+00  0.98883623903E+01  0.98883623903E+01  0.00000000000E+00 0.  1.
        1   -1    0    0  501    0  0.00000000000E+00 -0.00000000000E+00 -0.21022822121E+03  0.21022822121E+03  0.00000000000E+00 0. -1.
       23    1    1    2    0    0  0.00000000000E+00 -0.00000000000E+00 -0.20033985882E+03  0.22011658360E+03  0.91188000000E+02 0.  1.
<scales pt_clust_3="100000.00000"></scales>
<rwgt>
<wgt id='bias'>   0.1000000E+01</wgt>
</rwgt>
<clustering>
<clus scale="   91.188">  2  3  1 -1</clus>
</clustering>
</event>
<event>
 4   2  0.8512900E+003  0.9189527E+02  0.7546771E-02  0.1178648E+00
        2   -1    0    0  502    0 -0.00000000000E+00  0.00000000000E+00  0.64382036945E+02  0.64382036945E+02  0.00000000000E+00 0. -1.
       21   -1    0    0  501  502  0.00000000000E+00 -0.00000000000E+00 -0.45787900537E+02  0.45787900537E+02  0.00000000000E+00 0.  1.
       23    1    1    2    0    0 -0.11314301214E+02 -0.12146890953E+01  0.27274951564E+02  0.95857515138E+02  0.91188000000E+02 0. -1.
        2    1    1    2  501    0  0.11314301214E+02  0.12146890953E+01 -0.86808151561E+01  0.14312422344E+02  0.00000000000E+00 0. -1.
<scales pt_clust_3="100000.00000" pt_clust_4="11.37932"></scales>
<rwgt>
<wgt id='bias'>   0.1000000E+01</wgt>
</rwgt>
<clustering>
<clus scale="   11.379">  2  4  1 -1</clus>
<clus scale="   11.379">  2  3  1 -1</clus>
</clustering>
</event>
<event>
 3   1  0.8512900E+003  0.9118800E+02  0.7546771E-02  0.1180022E+00
       -4   -1    0    0    0  501 -0.00000000000E+00  0.00000000000E+00  0.10028460896E+03  0.10028460896E+03  0.00000000000E+00 0.  1.
        4   -1    0    0  501    0  0.00000000000E+00 -0.00000000000E+00 -0.20729131394E+02  0.20729131394E+02  0.00000000000E+00 0. -1.
       23    1    1    2    0    0  0.00000000000E+00 -0.00000000000E+00  0.79555477568E+02  0.12101374036E+03  0.91188000000E+02 0.  1.
<scales pt_clust_3="100000.00000"></scales>
<rwgt>
<wgt id='bias'>   0.1000000E+01</wgt>
</rwgt>
<clustering>
<clus scale="   91.188">  2  3  1 -1</clus>
</clustering>
</event>
<event>
 3   1  0.8512900E+003  0.9118800E+02  0.7546771E-02  0.1180022E+00
       -2   -1    0    0    0  501 -0.00000000000E+00  0.00000000000E+00  0.11619797838E+00  0.11619797838E+00  0.00000000000E+00 0.  1.
        2   -1    0    0  501    0  0.00000000000E+00 -0.00000000000E+00 -0.17890266810E+05  0.17890266810E+05  0.00000000000E+00 0. -1.
       23    1    1    2    0    0  0.00000000000E+00 -0.00000000000E+00 -0.17890150612E+05  0.17890383008E+05  0.91188000000E+02 0.  1.
<scales pt_clust_3="100000.00000"></scales>
<rwgt>
<wgt id='bias'>   0.1000000E+01</wgt>
</rwgt>
<clustering>
<clus scale="   91.188">  2  3  1 -1</clus>
</clustering>
</event>
<event>
 5   3  0.8512900E+003  0.2769857E+02  0.7546771E-02  0.1172220E+00
       21   -1    0    0  503  502  0.00000000000E+00  0.00000000000E+00  0.65268806116E+02  0.65268806116E+02  0.00000000000E+00 0.  1.
       21   -1    0    0  501  503 -0.00000000000E+00 -0.00000000000E+00 -0.52659020029E+03  0.52659020029E+03  0.00000000000E+00 0. -1.
       23    1    1    2    0    0  0.12390375582E+02 -0.19960398747E+02  0.21793781561E+02  0.96654845631E+02  0.91188000000E+02 0.  1.
        1    1    1    2  501    0 -0.22050951899E+01 -0.11890395806E+02 -0.44218645523E+03  0.44235178891E+03  0.00000000000E+00 0. -1.
       -1    1    1    2    0  502 -0.10185280392E+02  0.31850794553E+02 -0.40928720506E+02  0.52852371873E+02  0.00000000000E+00 0.  1.
<scales pt_clust_3="100000.00000" pt_clust_4="12.09314" pt_clust_5="27.69857"></scales>
<rwgt>
<wgt id='bias'>   0.1000000E+01</wgt>
</rwgt>
<clustering>
<clus scale="   12.093">  2  4  1 -1</clus>
<clus scale="   27.699">  1  5  2 -1</clus>
<clus scale="   27.699">  1  3  2 -1</clus>
</clustering>
</event>
<event>
 3   1  0.8512900E+003  0.9118800E+02  0.7546771E-02  0.1180022E+00
       -4   -1    0    0    0  501 -0.00000000000E+00  0.00000000000E+00  0.35309210648E+03  0.35309210648E+03  0.00000000000E+00 0. -1.
        4   -1    0    0  501    0  0.00000000000E+00 -0.00000000000E+00 -0.58874520213E+01  0.58874520213E+01  0.00000000000E+00 0.  1.
       23    1    1    2    0    0  0.00000000000E+00 -0.00000000000E+00  0.34720465446E+03  0.35897955850E+03  0.91188000000E+02 0. -1.
<scales pt_clust_3="100000.00000"></scales>
<rwgt>
<wgt id='bias'>   0.1000000E+01</wgt>
</rwgt>
<clustering>
<clus scale="   91.188">  2  3  1 -1</clus>
</clustering>
</event>
<event>
 5   3  0.8512900E+003  0.2941227E+03  0.7546771E-02  0.1003385E+00
       21   -1    0    0  503  502  0.00000000000E+00  0.00000000000E+00  0.47271577762E+03  0.47271577762E+03  0.00000000000E+00 0. -1.
       21   -1    0    0  501  503 -0.00000000000E+00 -0.00000000000E+00 -0.17416222559E+03  0.17416222559E+03  0.00000000000E+00 0.  1.
       23    1    1    2    0    0 -0.45670789661E+02  0.15062931124E+02  0.27999755389E+02  0.10682673152E+03  0.91188000000E+02 0.  1.
        5    1    1    2  501    0 -0.12788757917E+03 -0.45620429112E+02  0.32775921596E+03  0.35477113764E+03  0.00000000000E+00 0. -1.
       -5    1    1    2    0  502  0.17355836883E+03  0.30557497988E+02 -0.57205419312E+02  0.18528013405E+03  0.00000000000E+00 0.  1.
<scales pt_clust_3="100000.00000" pt_clust_4="100000.00000" pt_clust_5="176.22797"></scales>
<rwgt>
<wgt id='bias'>   0.1000000E+01</wgt>
</rwgt>
<clustering>
<clus scale="  135.781">  3  4 -1 -1</clus>
<clus scale="  176.228">  1  5  2 -1</clus>
<clus scale="  176.228">  1  3  2 -1</clus>
</clustering>
</event>
<event>
 4   2  0.8512900E+003  0.7964242E+03  0.7546771E-02  0.8905628E-01
       21   -1    0    0  501  502  0.00000000000E+00  0.00000000000E+00  0.82384744100E+01  0.82384744100E+01  0.00000000000E+00 0.  1.
        2   -1    0    0  502    0 -0.00000000000E+00 -0.00000000000E+00 -0.19247845399E+05  0.19247845399E+05  0.00000000000E+00 0. -1.
       23    1    1    2    0    0 -0.30879143380E+03  0.23262091430E+03 -0.80400470776E+04  0.80498532223E+04  0.91188000000E+02 0.  1.
        2    1    1    2  501    0  0.30879143380E+03 -0.23262091430E+03 -0.11199559847E+05  0.11206230651E+05  0.00000000000E+00 0. -1.
<scales pt_clust_3="100000.00000" pt_clust_4="100000.00000"></scales>
<rwgt>
<wgt id='bias'>   0.1000000E+01</wgt>
</rwgt>
<clustering>
<clus scale="  386.607">  3  4 -1 -1</clus>
<clus scale="  796.424">  1  3  2 -1</clus>
</clustering>
</event>
<event>
 3   1  0.8512900E+003  0.9118800E+02  0.7546771E-02  0.1180022E+00
       -2   -1    0    0    0  501 -0.00000000000E+00  0.00000000000E+00  0.13727584581E+03  0.13727584581E+03  0.00000000000E+00 0.  1.
        2   -1    0    0  501    0  0.00000000000E+00 -0.00000000000E+00 -0.15143325643E+02  0.15143325643E+02  0.00000000000E+00 0. -1.
       23    1    1    2    0    0  0.00000000000E+00 -0.00000000000E+00  0.12213252017E+03  0.15241917145E+03  0.91188000000E+02 0.  1.
<scales pt_clust_3="100000.00000"></scales>
<rwgt>
<wgt id='bias'>   0.1000000E+01</wgt>
</rwgt>
<clustering>
<clus scale="   91.188">  2  3  1 -1</clus>
</clustering>
</event>
<event>
 5   3  0.8512900E+003  0.9502294E+02  0.7546771E-02  0.1172735E+00
       -3   -1    0    0    0  502 -0.00000000000E+00  0.00000000000E+00  0.40377377013E+02  0.40377377013E+02  0.00000000000E+00 0.  1.
       -1   -1    0    0    0  501  0.00000000000E+00 -0.00000000000E+00 -0.40979365173E+03  0.40979365173E+03  0.00000000000E+00 0.  1.
       23    1    1    2    0    0 -0.14706422453E+02  0.71021706189E+01 -0.61107236423E+02  0.11097776974E+03  0.91188000000E+02 0.  0.
       -1    1    1    2    0  502 -0.12623020037E+02  0.41475457161E+00 -0.31050705274E+03  0.31076380493E+03  0.00000000000E+00 0.  1.
       -3    1    1    2    0  501  0.27329442489E+02 -0.75169251905E+01  0.21980144490E+01  0.28429454068E+02  0.00000000000E+00 0.  1.
<scales pt_clust_3="100000.00000" pt_clust_4="12.62983" pt_clust_5="26.72280"></scales>
<rwgt>
<wgt id='bias'>   0.1000000E+01</wgt>
</rwgt>
<clustering>
<clus scale="   12.630">  2  4  1 -1</clus>
<clus scale="   26.723">  2  5  1 -1</clus>
<clus scale="   12.630">  2  3  1 -1</clus>
</clustering>
</event>
<event>
 4   2  0.8512900E+003  0.1494331E+03  0.7546771E-02  0.1098331E+00
       -1   -1    0    0    0  501 -0.00000000000E+00  0.00000000000E+00  0.37323602448E+02  0.37323602448E+02  0.00000000000E+00 0.  1.
        1   -1    0    0  502    0  0.00000000000E+00 -0.00000000000E+00 -0.38640071175E+04  0.38640071175E+04  0.00000000000E+00 0. -1.
       23    1    1    2    0    0 -0.11792301359E+03 -0.10448115239E+02 -0.11707489060E+03  0.18983356289E+03  0.91188000000E+02 0.  1.
       21    1    1    2  502  501  0.11792301359E+03  0.10448115239E+02 -0.37096086244E+04  0.37114971570E+04  0.00000000000E+00 0. -1.
<scales pt_clust_3="100000.00000" pt_clust_4="118.38497"></scales>
<rwgt>
<wgt id='bias'>   0.1000000E+01</wgt>
</rwgt>
<clustering>
<clus scale="  118.385">  2  4  1 -1</clus>
<clus scale="  118.385">  2  3  1 -1</clus>
</clustering>
</event>
<event>
 5   3  0.8512900E+003  0.1853203E+03  0.7546771E-02  0.1066222E+00
       21   -1    0    0  501  502  0.00000000000E+00  0.00000000000E+00  0.32384766425E+02  0.32384766425E+02  0.00000000000E+00 0. -1.
        1   -1    0    0  503    0 -0.00000000000E+00 -0.00000000000E+00 -0.88954936785E+03  0.88954936785E+03  0.00000000000E+00 0. -1.
       23    1    1    2    0    0 -0.76350695316E-01  0.81856779520E+00 -0.86939007629E+03  0.87415961471E+03  0.91188000000E+02 0.  0.
       21    1    1    2  503  502 -0.18792654155E+02 -0.67681739624E+01  0.18287949497E+02  0.27081748943E+02  0.00000000000E+00 0. -1.
        1    1    1    2  501    0  0.18869004850E+02  0.59496061672E+01 -0.60624746303E+01  0.20692770627E+02  0.00000000000E+00 0. -1.
<scales pt_clust_3="100000.00000" pt_clust_4="19.97428" pt_clust_5="100000.00000"></scales>
<rwgt>
<wgt id='bias'>   0.1000000E+01</wgt>
</rwgt>
<clustering>
<clus scale="   19.785">  3  5 -1 -1</clus>
<clus scale="   19.974">  1  4  2 -1</clus>
<clus scale="   19.974">  1  3  2 -1</clus>
</clustering>
</event>
<event>
 5   3  0.8512900E+003  0.8454279E+02  0.7546771E-02  0.1127336E+00
        3   -1    0    0  503    0 -0.00000000000E+00  0.00000000000E+00  0.73430913870E+02  0.73430913870E+02  0.00000000000E+00 0. -1.
       21   -1    0    0  501  502  0.00000000000E+00 -0.00000000000E+00 -0.48232689340E+03  0.48232689340E+03  0.00000000000E+00 0. -1.
       23    1    1    2    0    0  0.77089757332E+02  0.40893080233E+02 -0.58748398590E+02  0.13921817546E+03  0.91188000000E+02 0. -1.
       21    1    1    2  503  502 -0.13494467054E+02  0.14696072042E+02  0.25008599764E+02  0.31992268390E+02  0.00000000000E+00 0. -1.
        3    1    1    2  501    0 -0.63595290278E+02 -0.55589152275E+02 -0.37515618071E+03  0.38454736343E+03  0.00000000000E+00 0. -1.
<scales pt_clust_3="100000.00000" pt_clust_4="19.95182" pt_clust_5="84.54279"></scales>
<rwgt>
<wgt id='bias'>   0.1000000E+01</wgt>
</rwgt>
<clustering>
<clus scale="   19.952">  1  4  2 -1</clus>
<clus scale="   84.543">  2  5  1 -1</clus>
<clus scale="   84.543">  2  3  1 -1</clus>
</clustering>
</event>
<event>
 3   1  0.8512900E+003  0.9118800E+02  0.7546771E-02  0.1180022E+00
       -2   -1    0    0    0  501 -0.00000000000E+00  0.00000000000E+00  0.16078946794E+03  0.16078946794E+03  0.00000000000E+00 0. -1.
        2   -1    0    0  501    0  0.00000000000E+00 -0.00000000000E+00 -0.12928787330E+02  0.12928787330E+02  0.00000000000E+00 0.  1.
       23    1    1    2    0    0  0.00000000000E+00 -0.00000000000E+00  0.14786068061E+03  0.17371825527E+03  0.91188000000E+02 0. -1.
<scales pt_clust_3="100000.00000"></scales>
<rwgt>
<wgt id='bias'>   0.1000000E+01</wgt>
</rwgt>
<clustering>
<clus scale="   91.188">  2  3  1 -1</clus>
</clustering>
</event>
</LesHouchesEvents>
